136
Lattice="24.397 0.0 0.0 0.0 24.397 0.0 0.0 0.0 24.397" Properties=species:S:1:pos:R:3:move_mask:L:1:tags:I:1 i=41 E=-6943.8331748197 regions="_JSON [\"Active\"]" n_terminators=32 energy=-917.4243436098842 pbc="F F F"
O       21.73038919       2.57724653       0.00469050  T        0
O       21.88712417       6.07953548       3.69358149  T        0
O       21.01280909      12.52474284       3.55431470  T        0
O       21.00554799       3.55211151      12.48532828  T        0
O       21.87736108       0.02412475       2.58893529  T        0
O       17.99292698       9.53695491       3.65939609  T        0
O       21.75801073       3.58077265       5.67807288  T        0
O       17.76305698       3.89938894       9.67405989  T        0
O       23.81179537       1.71232443       1.77523978  T        0
O       22.76714728       5.05817098       7.86824292  T        0
O       22.65799248       8.01632135       5.31124487  T        0
O       20.00136072      10.62698924       5.12732566  T        0
O       23.92536096       4.38940435       4.41069837  T        0
O       19.98723940       5.12933388      10.58994054  T        0
O       20.81141958       6.18978286       6.09161047  T        0
O       18.38456118       8.77851366       6.23600110  T        0
O       21.93943042      12.25430608       6.12413850  T        0
O       20.98525794       0.01782219       0.03418999  T        0
O       24.31912036       2.61839891       6.43952676  T        0
O       24.38421371       6.32886936       2.58418237  T        0
O       18.39527201       6.29693137       8.74403336  T        0
O       21.91377623       6.13108768      12.23587839  T        0
O       22.61640193       4.22896573       2.12589309  T        0
O       22.60612387       4.40277325      10.46898740  T        0
O       20.13831451       8.08544019       4.35996636  T        0
O       22.61875456      10.50667957       4.37308319  T        0
O       22.86278801       1.88360257       4.23193904  T        0
O       19.96125588       4.27172161       8.05964653  T        0
Al      23.21365216       3.03802136       0.80476887  T        0
Si      23.59708657       4.85501076       9.23655138  T        0
Si      21.34287727       7.11529460       4.91684709  T        0
Si      21.36216850      11.48380668       4.79410043  T        0
Si      23.27998833       0.81201422       2.97527780  T        0
Si      19.10771674       9.27525931       4.85164227  T        0
Al      21.26036204       4.80744302       7.03670581  T        0
Si      23.59178822       9.28793174       4.87298584  T        0
Si      23.32051893       3.11821852       5.29057113  T        0
Si      19.04541032       4.86956954       9.25568984  T        0
Si      23.27824595       5.32849806       3.19755166  T        0
Si      21.34439357       4.80414789      11.44470143  T        0
O       24.71838500       3.66139715       8.91879590  T        0
O       24.58165477       8.79713194       3.64466164  T        0
O       26.30025834       6.75311376       4.24681798  T        0
O       26.36338683       4.17161998       6.76625917  T        0
O       24.49588326       9.83345367       6.13417065  T        0
O       24.40881870       6.20178116       9.75469935  T        0
O       26.30705479       8.07938448       1.81151743  T        0
O       26.26841792       1.74936328       8.09055592  T        0
Si      25.42627522       7.51876754       3.07783896  T        0
Si      25.44025284       3.07586482       7.58663021  T        0
O       24.60417650       2.45761572      -2.67652338  T        0
O       26.25922217       1.79549933      -0.64196548  T        0
O       24.43666536      -0.06665359      -3.67027681  T        0
O       26.46078253       4.17904509      -2.01051643  T        0
Si      25.43594790       3.04266645      -1.37189653  T        0
O       24.64305142      -2.68554281       2.43140464  T        0
O       26.37294576      -0.63370541       1.91301658  T        0
O       24.44080515      -3.68272985      -0.07671834  T        0
O       26.29976047      -1.99320680       4.31197643  T        0
Si      25.44220612      -1.39245873       3.04135118  T        0
O       18.37714431       2.77212708      -3.53229115  T        0
O       20.99902779       2.52987143      -6.38976349  T        0
O       15.51539116      -0.20851905      -3.64742630  T        0
O       20.06960850       0.88806332      -4.46386259  T        0
O       22.63388955       0.85083978      -1.86524271  T        0
O       24.45643044       3.65528861      -0.23615009  T        0
O       18.07242424       0.18379019      -2.83505295  T        0
O       21.97094394      -0.01134647      -6.18133712  T        0
O       20.07228957       1.63003893      -1.87379022  T        0
O       22.63589655       1.72234836      -4.38554109  T        0
Si      19.15749677       1.35525155      -3.18318296  T        0
Si      21.38903238       1.28921667      -5.36099546  T        0
Si      23.59518654       1.24790790      -3.13303786  T        0
Si      21.36600104       1.30232085      -0.92116123  T        0
O       18.31026607      -3.62144283       2.56273726  T        0
O       15.69540284      -3.68265229      -0.12479715  T        0
O       20.83709218      -6.26315793       2.43495595  T        0
O       18.86813507      -8.05756345       1.84723859  T        0
O       16.32462043      -5.32329420       1.91682427  T        0
O       22.66176650      -1.86428630       0.87082826  T        0
O       20.17354918      -4.31692749       0.76024374  T        0
O       24.39206592      -0.23469874       3.55752184  T        0
O       18.33224767      -6.12623129       3.48126957  T        0
O       18.18707500      -2.68186525       0.07045783  T        0
O       21.99250935      -6.18637692      -0.02367338  T        0
O       16.58313926      -4.29593435       4.42898996  T        0
O       13.82981872      -4.31007202       1.68568509  T        0
O       20.19001048      -7.95567881       4.28174493  T        0
O       20.11154916      -1.82341977       1.72693209  T        0
O       22.67165453      -4.39682204       1.72744000  T        0
Si      17.36863457      -4.85439944       3.09485886  T        0
Si      15.14177585      -4.88273482       0.86362067  T        0
Si      19.55726031      -7.11053311       3.01768140  T        0
Si      21.40210635      -0.90785707       1.29829894  T        0
Si      21.39784365      -5.30402630       1.22680697  T        0
Si      23.61066608      -3.14614374       1.23795149  T        0
Si      19.19741132      -3.10813787       1.28357989  T        0
O       17.63301732      -1.75808858      -4.46557414  T        0
O       17.67940741      -4.40940760      -1.81046908  T        0
O       14.63693117      -6.18231621      -0.02216565  T        0
O       16.59651467      -1.91506846      -1.95201713  T        0
Si      16.94754458      -0.92288911      -3.21683531  T        0
Si      17.01563550      -3.15613493      -0.95886586  T        0
H       20.10951523      12.72546585       3.23923157  F        0
H       20.10951519       3.23923103      12.72546793  F        0
H       17.77043279      10.38640226       3.23924444  F        0
H       17.77043311       3.23924387      10.38640412  F        0
H       17.49826767       8.95372279       6.60186186  F        0
H       21.54216027      12.99764967       6.60187561  F        0
H       17.49826771       6.60186080       8.95372435  F        0
H       21.54216028       6.60187434      12.99765198  F        0
H       26.95194123       7.17131746       4.82834527  F        0
H       26.95194124       4.82834452       7.17131883  F        0
H       25.19630608       9.34383456       6.60185911  F        0
H       25.19630604       6.60185806       9.34383627  F        0
H       26.93058105       7.58756876       1.24433203  F        0
H       26.93058086       1.24433163       7.58757011  F        0
H       26.95192867       1.27083937      -1.07240246  F        0
H       25.19622735      -0.50276655      -3.24494277  F        0
H       26.93057835       4.85486043      -1.48866112  F        0
H       26.95192866      -1.07240650       1.27083969  F        0
H       25.19622853      -3.24494603      -0.50276481  F        0
H       26.93057847      -1.48866524       4.85486109  F        0
H       17.77043356       2.85994955      -4.28747201  F        0
H       20.10952426       2.85994950      -6.62656333  F        0
H       15.43756588       0.52708969      -4.28745700  F        0
H       21.54221652      -0.50278066      -6.89866328  F        0
H       19.36968736      -8.65438575       1.27081564  F        0
H       21.54221602      -6.89866750      -0.50277915  F        0
H       15.76396541      -4.61106971       4.85484923  F        0
H       13.44267551      -4.61109597       2.53358811  F        0
H       19.78593016      -8.63303450       4.85484922  F        0
H       17.22541613      -2.55520754      -4.82860724  F        0
H       17.22541616      -4.82861063      -2.55520368  F        0
H       15.05289902      -6.60212414      -0.79956821  F        0
Fe      21.39652331       3.51319837       3.62394329  T        1
