141
Lattice="19.123 0.0 0.0 0.0 14.277 0.0 0.0 0.0 7.5465" Properties=species:S:1:pos:R:3:move_mask:L:1:tags:I:1 i=128 E=-2603.9155142701 regions="_JSON [\"Active\"]" n_terminators=32 energy=-955.3152173161661 pbc="F F F"
O        6.05393305       1.13212909       1.45962394  T        0
O       15.75226311       8.40492361       5.78927838  T        0
O       13.03274424       1.11224469       1.46360665  T        0
O        3.49833618       8.49369011       5.90696419  T        0
O        5.99065234      13.13439696       1.43138257  T        0
O       15.75706214       5.72220863       5.81679462  T        0
O       12.85125660      13.03873002       1.98762154  T        0
O        3.36191625       5.82160718       5.85259566  T        0
O       13.34750260      13.18048161       6.21716259  T        0
O        3.30255028       5.75986252       1.62115411  T        0
O        6.22420245      13.10097931       5.86427187  T        0
O       15.55493575       5.81152773       1.98398019  T        0
O       13.03580098       1.10769755       6.06700919  T        0
O        3.32417326       8.46371338       1.65210946  T        0
O        6.17044532       1.31215891       5.26823993  T        0
O       15.62490491       8.50129696       1.81202302  T        0
O        7.30197338       3.35957484       2.48978183  T        0
O       17.26195302      10.59538693       6.19730619  T        0
O       11.92382011       3.40497324       2.45851653  T        0
O        1.94192560      10.69778524       6.14279311  T        0
O        7.19698776      10.90308590       2.47492711  T        0
O       17.15957930       3.42039128       6.09648863  T        0
O       11.95283502      10.49346727       2.15935773  T        0
O        2.01570440       3.46298417       6.07869139  T        0
O       12.11817056      11.07071536       4.98684834  T        0
O        2.04784017       3.36502585       1.46975440  T        0
O        7.14926658      10.65829777       5.09090486  T        0
O       17.13821132       3.75713917       1.29303672  T        0
O       11.88298880       3.37988468       5.09392420  T        0
O        1.95809019      10.79280543       1.45421663  T        0
O        7.29822268       3.65281315       5.14640340  T        0
O       17.11823390      10.71063793       1.35353812  T        0
O        6.71756254       3.20587420      -0.05371591  T        0
O       16.16738391      10.15905674       3.82138042  T        0
O       12.47945626       3.26021201      -0.04822996  T        0
O        3.02417443      10.07709276       3.78878040  T        0
O        6.63455334      11.01466789      -0.04352512  T        0
O       16.13112824       3.99284657       3.77656644  T        0
O       12.83809867      11.36319932      -0.15902043  T        0
O        3.10757809       4.13636236       3.77689963  T        0
O        4.72857305       3.47976965       1.78197611  T        0
O       14.60070699      10.82727188       5.90681900  T        0
O       14.51079534       3.33902155       1.75084151  T        0
O        4.58328201      10.96128088       5.79055040  T        0
O        4.62646161      10.82259936       1.78801543  T        0
O       14.47062373       3.37165577       5.77001976  T        0
O       14.55504430      10.95749734       1.84085569  T        0
O        4.70578606       3.51941717       5.87127943  T        0
O       11.57775403       8.39416663       3.82974552  T        0
O        7.69052946       8.47166806       3.57033969  T        0
O       11.64172752       5.70929889       3.78018888  T        0
O       17.29366473      13.10473736       0.02984688  T        0
O        7.79611401       5.81140332       3.54965299  T        0
O        9.49728601      10.37239950       3.76506151  T        0
O        9.62606764       3.94488410       3.75030737  T        0
O       13.59921949       7.03563920       5.03304253  T        0
O        5.68432419       7.04475932       5.24454974  T        0
O        5.48370233       7.06960946       2.42132575  T        0
O       13.31096865       7.26975400       2.31779492  T        0
O       14.41269324       7.04950604      -0.08098412  T        0
O        4.95167938       7.11694369      -0.07193631  T        0
Si       6.16564996       2.78206439       1.44259787  T        0
Si      15.92051849      10.00755034       5.44298616  T        0
Si      13.01002515       2.76333925       1.42304703  T        0
Si       3.27457886      10.04332442       5.41383069  T        0
Si       6.08178145      11.47890719       1.43408552  T        0
Si      15.86258401       4.13841101       5.38686953  T        0
Si      13.06729049      11.49421787       1.45428485  T        0
Si       3.30515997       4.24424413       5.40292265  T        0
Si      13.13258910      11.53837156       6.14425752  T        0
Si       3.30292775       4.20315042       2.14571963  T        0
Si       6.11715977      11.45796194       6.07587806  T        0
Si      15.82896647       4.19968569       2.18413440  T        0
Si      12.99435423       2.75893305       6.12060761  T        0
Si       3.24377368      10.02493447       2.15767562  T        0
Si       6.16570610       2.80030914       6.00554415  T        0
Si      15.88272720      10.07765295       2.21854949  T        0
Al      11.21581432      10.17670778       3.83872227  T        0
Si       7.90120869      10.12627361       3.73468621  T        0
Si      11.25639706       4.09802747       3.77526917  T        0
Si      17.57471076      11.46962055      -0.05025027  T        0
Si       7.98615208       4.16264919       3.74143383  T        0
Si      14.86161316       7.06865342       6.08708170  T        0
Si       4.36331502       7.10657121       6.14496577  T        0
Si       4.24443717       7.10819325       1.41676653  T        0
Si      14.77543387       7.14672574       1.50073925  T        0
Si      12.53623547       7.07581143       3.82271757  T        0
Al       6.51771033       7.11018822       3.77377413  T        0
O       19.17285612      11.22319669      -0.35013434  T        0
O        6.61206333       2.63423613       7.59052879  T        0
O       12.44946418       3.22842140       7.59539651  T        0
O        6.65031619      11.05896933       7.58295524  T        0
O       12.49584211      11.04520578       7.58211535  T        0
O       14.20085221       7.06935250       7.59352110  T        0
O        5.00364397       7.01844486       7.66089257  T        0
O       15.50541849       8.46575860      -2.05942994  T        0
O       15.75885186       5.86968228      -2.16398637  T        0
O       12.82739971      13.07545865      -2.25321256  T        0
O       16.74146076      10.75398926      -1.28214369  T        0
O       11.57742289      10.70832477      -2.37733475  T        0
O       16.39667369      10.26480104      -3.86579275  T        0
O       14.27943138      10.80270221      -2.32924126  T        0
O       13.21573076       6.97044958      -2.34064991  T        0
Si      15.73754930      10.06198778      -2.37073121  T        0
Si      12.90404934      11.49012569      -1.79645696  T        0
Si      14.73019818       7.07328115      -1.69645207  T        0
H        5.61083456       0.52083913       2.07985367  F        0
H       13.50938118       0.51971906       2.07492992  F        0
H        5.61112307      13.75835362       2.07975607  F        0
H       13.50958039      13.75682243       2.07498241  F        0
H       13.51084140      13.75504172       5.44776650  F        0
H        5.62495998      13.75277707       5.44935724  F        0
H       13.50975252       0.52161770       5.44778410  F        0
H        5.62509051       0.52255101       5.44942550  F        0
H       17.28974254      11.12548174       7.01862795  F        0
H        1.83343022      11.12554006       7.01950242  F        0
H       17.28979000       3.14560285       7.02339196  F        0
H        1.81954193       3.15353441       6.98813474  F        0
H        1.83183800       3.14857954       0.53722786  F        0
H       17.29134854       3.14797220       0.53999843  F        0
H        1.83154049      11.12909684       0.54034962  F        0
H        6.35952436       2.97904956      -0.93427223  F        0
H       12.76076393       2.97683097      -0.93375646  F        0
H        6.36236324      11.29726414      -0.93275871  F        0
H       16.56020813      13.76127004      -0.00066979  F        0
H        4.51175007       7.13509558      -0.92932085  F        0
H       20.08739461      11.34211663       0.00099186  F        0
H        6.35949513       2.97597070       8.47938261  F        0
H       12.76321398       2.97604733       8.47995589  F        0
H        6.35946036      11.30224636       8.48133548  F        0
H       12.76333233      11.30075111       8.47967776  F        0
H       14.61405599       7.13800201       8.47661577  F        0
H        4.50898861       7.14016697       8.47499567  F        0
H       15.75636517       4.89339805      -2.09021006  F        0
H       13.51084140      13.75504172      -2.09873350  F        0
H       11.39521725      10.28762784      -3.24237523  F        0
H       15.92569105      10.11584057      -4.70878458  F        0
H       12.88191441       7.13773895      -3.23957932  F        0
Fe       8.98794968       7.18656287       2.54857243  T        0
Fe      11.62800812       8.54906042       1.55918072  T        1
O       10.16077170       7.53237902       1.20049157  T        2
