133
Lattice="20.102 0.0 0.0 0.0 19.731 0.0 0.0 0.0 13.253" Properties=species:S:1:pos:R:3:move_mask:L:1:tags:I:1 i=77 E=-3472.0240129048 regions="_JSON [\"Active\"]" n_terminators=30 energy=-906.440947232501 pbc="F F F"
O       10.19772436       8.70324647       9.72173468  T        0
O       10.03335748      11.54126738       3.81283919  T        0
O        2.14167721      11.29409987       3.91000072  T        0
O        7.66426050       8.64558824      10.48287390  T        0
O        8.60345933       2.81635033       8.44273642  T        0
O        2.19536855      12.73272054       1.76063417  T        0
O        8.38977060       7.35955943       8.24744716  T        0
O        2.11114571      10.02165229       1.61700685  T        0
O        8.33111534      10.05503178       8.36585363  T        0
O        3.64463852      11.09236922       6.11050833  T        0
O        6.55443309       8.63838048      12.83403034  T        0
O        3.55713324       9.10463874       4.30590790  T        0
O        6.65255403      10.95703409      11.56101706  T        0
O        3.64448214       0.67376651       4.02569006  T        0
O        5.03478068       1.04985550      10.87574482  T        0
O        4.82293736      11.43625302       3.77794267  T        0
O        5.01091183       9.00000541      10.64379634  T        0
O        6.25267587       2.47563798       1.19938042  T        0
O        4.66767035      12.54842204       8.19841246  T        0
O        5.97567763       7.34479460       1.12620507  T        0
O        6.10538150      10.71378018       7.06335522  T        0
O        4.01198407       8.88873048       0.10809452  T        0
O        3.91012355       9.96748325       8.46447911  T        0
O        5.71328852       9.85583286       1.93878628  T        0
O        2.54577019       2.12161085       1.63383508  T        0
O        7.98526709      12.59975226       7.61094113  T        0
O        1.98282014       7.42055585       0.97213509  T        0
O        8.44903454      10.69817045       5.82473165  T        0
O        2.55346508       1.52012860       9.99883633  T        0
O        7.46515563      11.18291147       3.42531206  T        0
O        2.47502101       8.26263732      10.00101409  T        0
O        9.04580679       9.05537764       3.81367456  T        0
O        8.33939973       0.78518235       3.73648710  T        0
O        4.51400115       2.48740293       8.61269834  T        0
O        6.18894907      12.56250040       1.69129661  T        0
O        4.41252956       7.32222083       8.60237594  T        0
O       -0.26261160       6.78829051       2.64879776  T        0
O        0.14417753       2.52959272       2.88076068  T        0
O       10.43172250       2.50981058       3.73803576  T        0
O       10.26892251       6.66160957       3.52060277  T        0
O        2.49697530       6.56726588       3.67874424  T        0
O        2.58954061       3.23798768       3.97402707  T        0
O        1.53642320       4.65906340       1.96715932  T        0
O        3.67781309       6.85538104       5.79963441  T        0
O        4.04523551       2.37242467       5.98400808  T        0
O        5.11587873       7.05838441       3.59405202  T        0
O        5.20586270       2.84268603       3.64900912  T        0
O        4.11215126       4.70033640       7.02346085  T        0
O        6.36694988       6.49992884       6.69348677  T        0
O        6.39420358       3.26903127       6.93589432  T        0
O        8.49343027       4.96996383       7.03543592  T        0
O        8.70684617       7.19736552       5.63863451  T        0
O        8.65868930       2.61152331       5.75347528  T        0
O        7.70947407       6.84915399       3.13742789  T        0
O        7.82717956       3.24241834       3.28238120  T        0
O        6.07784547       4.93533571       2.26624627  T        0
Si       1.54206806      11.34630502       2.37758186  T        0
Si       8.64354532       8.67446666       9.18013560  T        0
Si       3.54978921      10.74107382       4.52186927  T        0
Si       6.45153676       9.32751315      11.34531641  T        0
Si       4.56231386      11.07354854       7.46778779  T        0
Si       5.54496254       8.86694459       0.66771981  T        0
Si       7.70747600      11.02581326       7.22620786  T        0
Si       2.40163068       8.89104234       0.47435687  T        0
Si       8.74681329      10.60636287       4.22754559  T        0
Si       4.08954439       1.19048697       9.52932846  T        0
Si       6.02707513      11.27014199       2.68355625  T        0
Si       3.97375293       8.62998608       9.42767361  T        0
Al       1.37660631       6.39556823       2.24294501  T        0
Si       1.61369232       3.16946297       2.51427853  T        0
Si       3.72004550       7.50884921       4.28543872  T        0
Si       3.90372221       2.22108819       4.36987637  T        0
Al       4.72757135       6.42226446       7.18284381  T        0
Si       4.79630791       3.20891516       7.18469762  T        0
Si       7.95245290       6.51886661       6.91685066  T        0
Si       8.02450486       3.41829451       7.02605841  T        0
Si       8.91946955       7.44775753       4.04733585  T        0
Si       8.85115960       2.29881130       4.15549083  T        0
Si       6.23876227       6.54346841       2.52426358  T        0
Si       6.35387163       3.35612934       2.58271980  T        0
O        6.58988026       9.45874563      -0.44576508  T        0
O        1.52745030       9.48059837      -0.80216945  T        0
O        2.06655565      -1.48535542       4.03625177  T        0
O        3.58809612      -1.07385378       6.11533196  T        0
O        4.70632183      -1.74999497       3.68991478  T        0
O        4.54830308      -2.74051109       8.05761029  T        0
O        6.03894101      -0.87494766       6.73558998  T        0
O        4.16999201      -0.15960934       8.60114928  T        0
Si       3.53763310      -0.90793442       4.48742302  T        0
Si       4.57651432      -1.21864738       7.42019873  T        0
O       -0.08877585      11.37615323       2.39732071  T        0
O       -2.26105564      11.23914479       0.76553538  T        0
O       -2.52586885      11.37458840       3.40472693  T        0
O       -1.89303202       0.75248086       2.80250431  T        0
O       -1.45632594       9.12824780       2.23936648  T        0
O       -1.42733559       2.53695747       0.77963983  T        0
O       -2.49526715       6.92030609       1.07720481  T        0
O       -2.42876638       3.36155868       3.18520257  T        0
O       -2.74275235       7.34024990       3.64969179  T        0
Si      -1.59564351      10.74562340       2.19790713  T        0
Si      -1.43444325       2.29427739       2.41752813  T        0
Si      -1.67835504       7.51528794       2.40033019  T        0
H       10.95532307       8.85008497       9.12727255  F        0
H       10.94686465      11.30097846       4.04088346  F        0
H        8.32487049       1.96348467       8.80281458  F        0
H        2.20758188      13.00694286       0.83020008  F        0
H        6.01931354       8.91222751      13.59787507  F        0
H        6.45001595      11.67065412      10.93294989  F        0
H        5.99284639       0.93401564      11.03719697  F        0
H        5.69664664       1.68513527       1.05659762  F        0
H        4.03182275      12.92715973       8.82439874  F        0
H        2.35337064       1.61243811       0.82192755  F        0
H        8.21123678      12.90527891       8.50458507  F        0
H        1.92726146       1.06764952      10.59110356  F        0
H        1.92726146       8.79770260      10.59110356  F        0
H        8.57917594      -0.10444883       4.04180490  F        0
H        5.53537813      12.95496052       1.09262639  F        0
H       11.09748793       3.17088023       4.02620164  F        0
H       11.09748793       6.69447189       4.02620164  F        0
H        6.58577874       9.14969547      -1.35751146  F        0
H        1.54448592       9.14594745      -1.70877228  F        0
H        1.81269882      -1.43617684       3.09859994  F        0
H        5.52981240      -1.34062802       3.37578188  F        0
H        4.03182274      -3.06210338       8.82439872  F        0
H        6.92226376      -0.94135423       7.12331841  F        0
H       -2.15644976      10.75416907      -0.07046469  F        0
H       -3.49783775      11.30937631       3.49139018  F        0
H       -1.47168132      -0.10444883       2.58467926  F        0
H       -2.04192549       3.05661076       0.22907734  F        0
H       -2.04192548       6.80874135       0.22907734  F        0
H       -3.26882833       3.33840098       3.69123276  F        0
H       -3.26882835       6.52695112       3.69123277  F        0
Fe       2.99141688       5.03486417       5.13848580  T        1
