136
Lattice="19.123 0.0 0.0 0.0 14.277 0.0 0.0 0.0 7.5465" Properties=species:S:1:pos:R:3:move_mask:L:1:tags:I:1 i=128 E=-2603.9155142701 regions="_JSON [\"Active\"]" n_terminators=32 energy=-917.1279339289258 pbc="F F F"
O       15.70510707       8.27885977       5.38340136  T        0
O       12.86264895       1.23559726       2.20657058  T        0
O       15.63915461       5.79408404       5.54946191  T        0
O       12.97565547      13.16502715       1.52243489  T        0
O       12.85053222      13.04802820       5.34120130  T        0
O       15.70231092       6.01446258       2.17646198  T        0
O       13.00216468       1.11385934       6.02405205  T        0
O       15.62673338       8.49434503       1.97060082  T        0
O       17.11378928      10.81459074       6.31648621  T        0
O       11.58921675       3.48522168       2.38886604  T        0
O       17.04536963       3.58570921       6.34499242  T        0
O       11.88346244      10.80464915       2.45564960  T        0
O       11.63491317      10.76912939       5.14025964  T        0
O       17.02983463       3.46287175       1.20215757  T        0
O       11.88267338       3.45715937       5.07059875  T        0
O       17.04781301      10.70441106       1.19894966  T        0
O       16.26745587      10.32249968       3.67942248  T        0
O       12.53087156       2.74582272      -0.05206184  T        0
O       16.25037097       3.92671446       3.86257833  T        0
O       12.60771536      11.21609964      -0.11702469  T        0
O       14.25350661      10.73426950       5.74608105  T        0
O       14.20117669       3.59596770       1.82185628  T        0
O       14.43472209       3.41014879       5.80590502  T        0
O       14.44441263      10.89833800       1.75670243  T        0
O       11.45903564       8.48405086       3.77329781  T        0
O       17.32819776       1.09994152      -0.19679076  T        0
O       11.47188057       5.77988728       3.75817732  T        0
O       17.32769099      13.14612536      -0.02153526  T        0
O        9.49863209      10.34784748       3.47486266  T        0
O        9.49001462       3.94910445       4.08732794  T        0
O       13.33210658       7.09512218       5.11597290  T        0
O       13.32206987       7.18950097       2.40843760  T        0
O       14.44031650       7.06622087      -0.05092798  T        0
Al      15.83506718      10.15592834       5.35673413  T        0
Si      12.84000105       2.77427044       1.57011635  T        0
Si      15.83664777       4.11172991       5.38687258  T        0
Si      12.95895416      11.52137092       1.44927490  T        0
Si      12.85841318      11.50826912       5.97313160  T        0
Al      15.79711552       4.13600647       2.19904347  T        0
Si      12.95778635       2.75752606       6.08993964  T        0
Si      15.84003454      10.17277196       2.15373804  T        0
Si      11.10661058      10.10585779       3.73479839  T        0
Si      17.63328925       2.73891125      -0.10448593  T        0
Si      11.09780900       4.16285428       3.80120994  T        0
Si      17.58194578      11.51167224      -0.13491344  T        0
Si      14.69904661       7.10028858       6.00472972  T        0
Si      14.69334084       7.17591728       1.52897405  T        0
Si      12.37117232       7.13567829       3.76520705  T        0
O       19.18259936       3.04214468       7.92386527  T        0
O       19.21782623      11.32121468       8.00874444  T        0
O       22.63805635       6.00672910       2.31073089  T        0
O       21.53663610       3.79303181       1.20333511  T        0
O       22.25928972       3.80119578       3.78109197  T        0
O       24.22089782       3.96582699       1.81069914  T        0
O       21.41182853       1.31198042       0.48670265  T        0
O       19.28937420       2.89835784      -0.13192963  T        0
O       19.18592595      11.24379256      -0.38692991  T        0
Si      22.66979617       4.35035643       2.26829874  T        0
Si      20.93501361       2.81826050       0.00505205  T        0
O       21.62608444       3.16833437      -1.46317951  T        0
O       12.80938936       1.19856286       9.66602076  T        0
O       12.84994485      13.05768563       9.79805678  T        0
O       15.55869376       5.78633619       9.55874737  T        0
O       15.54276091       8.46569704       9.66340394  T        0
O       11.48365807       3.47018141       9.95503642  T        0
O       11.51568120      10.74722717       9.91378569  T        0
O       16.75630123       3.42233022       8.92584013  T        0
O       16.79835515      10.78060871       8.91673383  T        0
O       16.19030267      10.47244702      11.38844252  T        0
O       12.58448320       3.05539910       7.65192058  T        0
O       16.32049282       3.93091731      11.39430267  T        0
O       12.52040797      11.52152774       7.58957448  T        0
O       14.20411676       3.51057710       9.74723557  T        0
O       14.19839846      10.72976059       9.54497803  T        0
O       17.32847428       1.13066623       7.53737410  T        0
O       17.33154267      13.17807405       7.71828832  T        0
O       13.17791611       7.08169827       9.84418097  T        0
O       14.43581769       7.18952595       7.58482007  T        0
Si      12.81048618       2.79899801       9.25575206  T        0
Si      12.79952110      11.50920447       9.20662963  T        0
Si      15.68827493       4.17553976       9.89731782  T        0
Si      15.67512981      10.10824765       9.86927008  T        0
Si      17.57892825       2.76451990       7.66989664  T        0
Si      17.60737607      11.53049149       7.68231577  T        0
Si      14.70020990       7.13947397       9.21703774  T        0
O       15.55685002       8.47298290      -2.02341927  T        0
O       15.58599617       5.79037504      -2.10451353  T        0
O       12.81828694      13.06741451      -2.14016512  T        0
O       12.86673658       1.23610320      -2.28024489  T        0
O       16.76279469      10.83245259      -1.38251190  T        0
O       16.95476744       3.51362094      -1.41196324  T        0
O       11.49675956      10.78421047      -2.41272488  T        0
O       11.60795073       3.60168248      -2.36553300  T        0
O       16.33667862      10.31929186      -3.85476868  T        0
O       16.21779370       3.80067496      -3.85334417  T        0
O       14.21505774      10.75677986      -2.21974124  T        0
O       14.30666435       3.48776988      -1.92932755  T        0
O       13.19745720       7.13207105      -2.31817999  T        0
Si      15.69691475      10.08350857      -2.35943668  T        0
Si      15.75507242       4.15045016      -2.31169380  T        0
Si      12.82318865      11.46832798      -1.72332794  T        0
Si      12.85237798       2.77591101      -1.66126932  T        0
Si      14.71615183       7.10876845      -1.68189460  T        0
H       13.50938118       0.51971906       2.07492992  F        0
H       13.50958039      13.75682243       2.07498241  F        0
H       13.51084140      13.75504172       5.44776650  F        0
H       13.50975252       0.52161770       5.44778410  F        0
H       16.56036088       0.51548555      -0.00076213  F        0
H       16.56020813      13.76127004      -0.00066979  F        0
H        8.59739021      10.07362933       3.76217937  F        0
H        8.59637561       4.20354031       3.76204115  F        0
H       20.08726577       2.93486642       7.54597012  F        0
H       20.08739461      11.34211663       7.54749186  F        0
H       23.06898247       6.62073046       1.68518482  F        0
H       22.31579804       4.15795734       4.69750931  F        0
H       24.75935035       3.15857028       1.68481677  F        0
H       21.68544240       0.51556882       0.00084209  F        0
H       20.08739461      11.34211663       0.00099186  F        0
H       21.98145514       3.97853683      -1.88343379  F        0
H       13.50938118       0.51971906       9.62142992  F        0
H       13.50958039      13.75682243       9.62148241  F        0
H       11.39369377       3.98884644      10.77146895  F        0
H       11.39439525      10.28733182      10.77116771  F        0
H       15.92688062      10.11457984      12.25007275  F        0
H       15.92754156       4.15729643      12.25107281  F        0
H       16.56036088       0.51548555       7.54573787  F        0
H       16.56020813      13.76127004       7.54583021  F        0
H       12.88235039       7.13795337      10.76981689  F        0
H       13.51084140      13.75504172      -2.09873350  F        0
H       13.50975252       0.52161770      -2.09871590  F        0
H       11.39521725      10.28762784      -3.24237523  F        0
H       11.39412799       3.98861071      -3.24188863  F        0
H       15.92569105      10.11584057      -4.70878458  F        0
H       15.92661844       4.15901570      -4.70770176  F        0
H       12.88191441       7.13773895      -3.23957932  F        0
Fe      16.18432907       7.16973497       3.76471576  T        1
