148
Lattice="24.397 0.0 0.0 0.0 24.397 0.0 0.0 0.0 24.397" Properties=species:S:1:pos:R:3:move_mask:L:1:tags:I:1 i=41 E=-6943.8331748197 regions="_JSON [\"Active\"]" n_terminators=24 energy=-1049.0027218718435 pbc="F F F"
O        9.40881507      14.66006946      -0.20553231  T        0
O       12.21335365       9.43452610       2.76555857  T        0
O       14.81105585      21.09847882       6.07192832  T        0
O       12.20966374      15.68000593       8.87616337  T        0
O        9.44381601      18.48306773       3.39302924  T        0
O       15.99675900       9.68254511       6.05053050  T        0
O       18.35544229      14.85310102       8.73867801  T        0
O       20.90797986      12.17541280       3.58484039  T        0
O       21.04907475      15.64538700      -0.04549836  T        0
O       18.27067851      21.09367292       2.61006829  T        0
O       14.71754752       9.31478024      -0.23581583  T        0
O        9.53426611      12.24162839       2.66023139  T        0
O       20.93544518      14.80776576       6.10337240  T        0
O       15.77026142      12.24642160       8.77542190  T        0
O       18.31667368       9.65910774       3.83746734  T        0
O        9.46070712      15.63807240       6.16452796  T        0
O       14.88915917      18.42302831       8.85464402  T        0
O       12.18239962      21.06456907       3.45993161  T        0
O       15.62482366      21.02903964      -0.08636213  T        0
O       21.06105617      18.33930975       2.64750282  T        0
O       11.40522950      14.01170745       1.86483676  T        0
O       14.13422852      11.16976028       2.01474298  T        0
O       17.51809147      10.28788819       8.17221847  T        0
O       20.26527115      13.07839667       8.05862259  T        0
O       20.41516470      10.21080288       5.38762791  T        0
O       19.24526411      16.54133406       1.76149816  T        0
O       16.49308335      19.24660022       1.75470420  T        0
O       10.25106105      10.18932683       1.11584440  T        0
O       11.18015323      16.61264733       4.32900740  T        0
O       13.99535723      19.24221035       4.28413499  T        0
O       14.02485301      16.57912464       7.08472147  T        0
O       19.14924092      14.08402131       4.25724545  T        0
O       16.30420428      11.47502091       4.04150491  T        0
O       16.47782415      14.13687315       7.00291474  T        0
O       12.08341766      12.02473508       3.48440657  T        0
O       18.45218098       8.67936404       6.30190376  T        0
O       18.29420569      12.32499476       9.65363233  T        0
O       21.85649850      12.29695193       6.08791876  T        0
O       18.44540967      18.49239326       3.35044640  T        0
O       12.15227422       8.69800631       0.20481001  T        0
O        8.80533486      12.06773061       0.09576305  T        0
O       12.09209220      15.02231034       6.24347068  T        0
O       12.05586900      18.46008203       2.68606255  T        0
O       15.60589158      18.51646136       6.24524574  T        0
O       18.42517337      15.72838564       6.20925842  T        0
O       18.41007285      12.10494627       2.66511381  T        0
O       14.95468474      12.15086367       6.23857840  T        0
O       10.31109536      16.65624919       1.77558887  T        0
O       13.91811703      10.41192616       4.54655578  T        0
O       20.00812844       7.74947953       4.30037442  T        0
O       16.42652508       7.82395332       7.87552876  T        0
O       20.07394769      14.14297730      10.55416192  T        0
O       22.85193727      10.53578223       4.29288172  T        0
O       20.06590253      13.97041403       1.74654413  T        0
O       16.53266192      20.09433472       4.31505242  T        0
O       16.75068076      10.23925493       1.75204907  T        0
O       10.51633123      13.99600833       4.39243400  T        0
O       22.76465901      14.12039537       7.85318023  T        0
O       16.52599180      10.55465998      10.67150921  T        0
O       13.93633389      20.06947194       1.72632315  T        0
O       20.06102958      16.59824401       4.31932799  T        0
O        7.70373488      10.44141265       1.95763380  T        0
O       16.58759725      16.66407013       7.88374730  T        0
O       13.95021290      14.00056297       7.86519818  T        0
O       10.43132574       7.64828449       2.00407241  T        0
Al      10.64314436      15.29466010       0.80046997  T        0
Si      13.06296397      10.75311575       3.19361372  T        0
Si      17.10451648       9.11399339       7.12025940  T        0
Si      19.25391131      13.58572914       9.24867367  T        0
Si      21.50898118      11.30505352       4.84250333  T        0
Si      19.70145525      15.27955684       0.82946414  T        0
Si      17.43696690      19.72660115       3.00583500  T        0
Al      15.32117682      10.53144717       0.79464021  T        0
Si      10.87433213      13.05953696       3.11274059  T        0
Si      21.45334365      13.56666160       7.03744573  T        0
Si      17.03037820      11.34687203       9.32383830  T        0
Si      19.32311725       9.07245899       4.97783143  T        0
Si      15.23642340      19.69847013       0.80923462  T        0
Si      19.69111448      17.50198716       3.01309425  T        0
Si       9.05315926      11.23210445       1.45527312  T        0
Si      10.81873140      15.33683510       5.27799965  T        0
Si      13.02985557      19.71004589       3.04693820  T        0
Si      15.26866675      17.55066735       7.50951991  T        0
Si      19.64945417      15.31021434       5.22774784  T        0
Si      17.50079592      10.79947496       3.05022388  T        0
Si      15.28498495      13.14231789       7.49321960  T        0
Si      11.25374004       8.97949485       1.51499865  T        0
Si      15.29179352      10.91354199       5.25919986  T        0
Si      19.65902580      13.09436333       3.06386311  T        0
Si      17.46364886      15.35541766       7.46605144  T        0
Si      15.22804807      19.73821544       5.23599179  T        0
Si      10.74665611      17.54127142       3.03489503  T        0
Si      13.06362310      15.32987213       7.51097475  T        0
O       14.70800750      12.06630275      -2.39612188  T        0
O       15.66632082      18.30656171      -2.77793003  T        0
O       12.16290373      14.67892075      -2.59198633  T        0
O       18.30751065      15.66318516      -2.74903358  T        0
O       14.07207117      14.08638551      -0.75358601  T        0
O       16.48363965      16.49323669      -0.93491194  T        0
O       12.87491430      10.11579940      -1.95735917  T        0
O       10.14935315      12.91769553      -2.06147233  T        0
O       12.20684730      15.59511703      -0.04225439  T        0
O       15.64360963      12.17511253       0.13033824  T        0
O       18.44330261      14.90818311      -0.14314654  T        0
O       14.87308306      18.43544001      -0.17246273  T        0
O       12.26625888      12.18347574      -3.48689853  T        0
O       16.54990481      13.93261002      -1.73007141  T        0
O       14.10732985      10.38672112      -4.34652865  T        0
O        7.49412279      13.34764050      -1.64534290  T        0
O       13.96685723      16.54467214      -1.84618076  T        0
O       10.52705871      13.98418885      -4.51426091  T        0
O       13.31597726       7.44496740      -1.65120658  T        0
Si      15.28365557      13.03360576      -1.21107326  T        0
Si      15.26231358      17.46781294      -1.42133231  T        0
Si      13.07207031      15.26638753      -1.38812284  T        0
Si      17.45961812      15.26176730      -1.39181124  T        0
Si      13.30376268       8.91045142      -0.91570206  T        0
Si      11.25015494      13.41849180      -3.15186920  T        0
Si       8.98229926      13.29522261      -0.95358946  T        0
Si      13.47588585      11.17561839      -3.04530255  T        0
H       14.01033133      21.15748981       6.62630180  F        0
H       11.67124922      16.48560174       8.95913012  F        0
H        9.33839640      18.82463975       4.28720704  F        0
H       21.15749781      16.48550533      -0.52720743  F        0
H       18.82463422      21.15752504       1.81198193  F        0
H        9.33840600      16.48559124       6.62628668  F        0
H       14.01032599      18.82464129       8.95915608  F        0
H       11.67126808      21.15750273       4.28721909  F        0
H       16.48550522      21.15749796      -0.52720744  F        0
H       21.15752488      18.82463433       1.81198193  F        0
H       20.83116242       7.34351907       4.61081863  F        0
H       16.80917625       7.34350499       8.63275504  F        0
H       20.83112794      13.68672549      10.95404502  F        0
H       23.15243040       9.66481607       4.61081458  F        0
H       23.15239535      13.68673615       8.63276462  F        0
H       16.80915547       9.66477682      10.95402362  F        0
H        7.34352333       9.66479174       1.48837704  F        0
H        9.66479163       7.34352337       1.48837704  F        0
H       16.48557283      18.82464187      -2.86023677  F        0
H       18.82464171      16.48557294      -2.86023676  F        0
H       13.68673308       9.66480596      -4.85513656  F        0
H        7.34352146      13.68671965      -2.53387758  F        0
H        9.66480591      13.68673318      -4.85513656  F        0
H       13.68671953       7.34352150      -2.53387758  F        0
Fe      13.35356482      14.60739473       1.44699109  T        1
Fe      15.48666408      12.78645257       2.34490592  T        2
O       14.42051189      14.31853925       3.15764874  T        3
O       15.30937381      14.76876962       2.03073428  T        4
