136
Lattice="19.123 0.0 0.0 0.0 14.277 0.0 0.0 0.0 7.5465" Properties=species:S:1:pos:R:3:move_mask:L:1:tags:I:1 i=128 E=-2603.9155142701 regions="_JSON [\"Active\"]" n_terminators=34 energy=-901.0084245237023 pbc="F F F"
O       15.62214321       8.46943634       5.70898415  T        0
O       13.20278377       1.18388421       1.42575447  T        0
O       15.63839230       5.84797999       5.50868305  T        0
O       12.94313121      13.19263207       1.51475463  T        0
O       12.69997777      13.21775235       5.52726236  T        0
O       15.76750305       5.94250222       1.90147304  T        0
O       12.72237963       1.09606797       5.49588920  T        0
O       15.54792526       8.53827679       1.54536010  T        0
O       17.14506680      10.53225148       6.18774691  T        0
O       11.88400947       3.38593308       2.51790128  T        0
O       16.96371051       3.28739473       6.25834785  T        0
O       11.89966306      10.84401855       2.49220189  T        0
O       11.63336336      10.78895642       5.15036163  T        0
O       16.97129230       3.67224990       1.02778693  T        0
O       11.54796343       3.46333364       5.16632641  T        0
O       16.99918909      10.69674006       1.05895418  T        0
O       16.01533170      10.28346598       3.52660458  T        0
O       12.44500007       3.24942294      -0.05008857  T        0
O       16.35408509       4.18380519       3.59800541  T        0
O       12.27672349      11.16971714      -0.09599798  T        0
O       14.26271288      11.06430343       5.71208438  T        0
O       14.41170598       3.57259945       1.77436224  T        0
O       14.19610365       3.33772635       5.45308774  T        0
O       14.40192197      10.94226578       1.50954019  T        0
O       11.51301500       8.49048610       3.72700094  T        0
O       17.32564298       1.13539147       0.04908317  T        0
O       11.53840543       5.76950649       3.74923895  T        0
O       17.35375058      13.17906579      -0.03328133  T        0
O        9.50973077      10.32480457       3.48800604  T        0
O        9.49903065       3.99424624       3.43060313  T        0
O       13.35026262       7.17807523       5.12395297  T        0
O       13.42883012       7.11764314       2.43936722  T        0
O       14.18355253       6.84831905      -0.09933881  T        0
Al      15.64634907      10.20847370       5.21524484  T        0
Si      12.97813456       2.82210148       1.44914975  T        0
Al      15.75061537       4.05225764       5.31231894  T        0
Si      12.88981411      11.54437229       1.39308722  T        0
Si      12.78206799      11.62395348       5.99875342  T        0
Si      15.84518268       4.25346356       2.04685934  T        0
Si      12.79909965       2.70249331       5.94018681  T        0
Si      15.74927529      10.13589125       1.95649951  T        0
Si      11.12139061      10.10398056       3.74003775  T        0
Si      17.56264517       2.75566040      -0.21722008  T        0
Si      11.10460516       4.16988798       3.74668205  T        0
Si      17.57436485      11.54345299      -0.22651687  T        0
Si      14.72652031       7.12386344       6.00445807  T        0
Si      14.70313707       7.16240875       1.43150647  T        0
Si      12.43730294       7.13919826       3.76339844  T        0
O       21.59790107       3.18060802       9.01988537  T        0
O       21.56940387      11.08994387       9.03491908  T        0
O       20.99709313       1.16441636       7.32709738  T        0
O       20.96171205      13.12981034       7.39380163  T        0
O       19.21434852       2.99469565       7.68146928  T        0
O       19.20282476      11.27966362       7.65643528  T        0
O       24.16459956       7.14205731       7.65191059  T        0
Si      20.84430236       2.78260220       7.59110371  T        0
Si      20.84088229      11.49763035       7.60214998  T        0
O       22.91164806       8.50071077       5.65457028  T        0
O       22.91671017       5.79455952       5.64039843  T        0
O       21.54111969      10.67405433       6.34526376  T        0
O       21.53809781       3.63586955       6.34401843  T        0
O       21.96492460      10.20052129       3.75240881  T        0
O       21.96775222       4.09303281       3.74361835  T        0
O       24.03406260      10.96759333       5.20978251  T        0
O       24.03456657       3.32540232       5.20720388  T        0
O       19.18304635       3.03782413      -0.39284151  T        0
O       19.19633882      11.26295425      -0.42513809  T        0
O       25.22661753       7.15354423       5.27529900  T        0
Si      22.63403758      10.07989958       5.26233407  T        0
Si      22.63376485       4.21218442       5.25686815  T        0
Si      23.75654666       7.14668761       6.04233683  T        0
O       12.83806744       1.22102465       9.74073946  T        0
O       12.83534181      13.07338279       9.79754262  T        0
O       15.53971052       5.81623658       9.68829904  T        0
O       15.52691747       8.48200179       9.55294145  T        0
O       11.58000779       3.57394396       9.90095988  T        0
O       11.51263282      10.76623540       9.92845552  T        0
O       16.88721214       3.58397625       8.89289511  T        0
O       16.79025593      10.79314260       8.83743818  T        0
O       16.21035326      10.40558875      11.35883577  T        0
O       12.59700465       2.84690665       7.57057342  T        0
O       16.25044181       3.83139368      11.39305208  T        0
O       12.46903263      11.49655460       7.60966737  T        0
O       14.28369344       3.48999256       9.54659825  T        0
O       14.21564160      10.77972800       9.54247611  T        0
O       17.27941951       1.10624062       7.86568199  T        0
O       17.13836403      13.01358152       7.25974522  T        0
O       13.16051150       7.16286816       9.83971191  T        0
O       14.39096210       7.01889508       7.58883235  T        0
Si      12.84877948       2.78691992       9.19392195  T        0
Si      12.79073703      11.52109261       9.21485979  T        0
Si      15.73123058       4.18659762       9.86805190  T        0
Si      15.67551547      10.09783000       9.82443694  T        0
Si      17.57458912       2.73475427       7.64466258  T        0
Si      17.56651548      11.43471385       7.53095794  T        0
Si      14.68126489       7.12128950       9.19549796  T        0
O       16.78871143      11.06880467      -1.61958087  T        0
O       16.78979001       3.20027387      -1.62118068  T        0
H       13.50938118       0.51971906       2.07492992  F        0
H       13.50958039      13.75682243       2.07498241  F        0
H       13.51084140      13.75504172       5.44776650  F        0
H       13.50975252       0.52161770       5.44778410  F        0
H       12.76076393       2.97683097      -0.93375646  F        0
H       12.76174962      11.29928001      -0.93393629  F        0
H       16.56036088       0.51548555      -0.00076213  F        0
H       16.56020813      13.76127004      -0.00066979  F        0
H        8.59739021      10.07362933       3.76217937  F        0
H        8.59637561       4.20354031       3.76204115  F        0
H       14.60982961       7.13673871      -0.92783774  F        0
H       22.00636260       3.98381786       9.40800429  F        0
H       22.00483182      10.29715766       9.41435165  F        0
H       21.68544240       0.51556882       7.54734209  F        0
H       21.68557806      13.76129914       7.54737584  F        0
H       23.63198861       7.14016697       8.47499567  F        0
H       22.32036723      10.11759060       2.83883070  F        0
H       22.32326696       4.16316078       2.82892343  F        0
H       24.76092223      11.11473374       5.84604825  F        0
H       24.75385446       3.15950316       5.84781029  F        0
H       20.08726577       2.93486642      -0.00052988  F        0
H       20.08739461      11.34211663       0.00099186  F        0
H       25.36244212       7.13797332       4.30618001  F        0
H       13.50938118       0.51971906       9.62142992  F        0
H       13.50958039      13.75682243       9.62148241  F        0
H       11.39369377       3.98884644      10.77146895  F        0
H       11.39439525      10.28733182      10.77116771  F        0
H       15.92688062      10.11457984      12.25007275  F        0
H       15.92754156       4.15729643      12.25107281  F        0
H       16.56036088       0.51548555       7.54573787  F        0
H       16.56020813      13.76127004       7.54583021  F        0
H       12.88235039       7.13795337      10.76981689  F        0
H       16.24044124      10.28985035      -1.86101282  F        0
H       16.23925818       3.97887666      -1.85852020  F        0
Fe      16.89001886       6.29620012       3.83594417  T        0
Fe      17.75554407       8.50945686       5.94840188  T        1
O       18.45609654       8.03141059       7.38434393  T        2
O       18.07260442       7.57832760       4.40857276  T        3
