133
Lattice="20.102 0.0 0.0 0.0 19.731 0.0 0.0 0.0 13.253" Properties=species:S:1:pos:R:3:move_mask:L:1:tags:I:1 i=77 E=-3472.0240129048 regions="_JSON [\"Active\"]" n_terminators=34 energy=-879.7308809808378 pbc="F F F"
O       10.05938747       8.41961572       9.31375629  T        0
O        9.93889012      18.70771219       4.04747598  T        0
O       10.05476623      11.28833049       4.15026828  T        0
O        2.30133954      11.39370424       3.94199841  T        0
O        7.71710895       8.25011134      10.61885532  T        0
O       12.08758974      18.62368394       2.49396124  T        0
O       12.16897055      11.10828219       2.63877811  T        0
O        7.91647067       7.30585915       8.14661568  T        0
O       12.17205592      17.50052856       4.93328076  T        0
O       12.26391346      12.61544004       4.87268539  T        0
O        7.98996906       9.96874723       8.61995060  T        0
O       12.14394912      20.18640690       4.62650674  T        0
O       12.20027054       9.97505334       5.12232439  T        0
O        3.76680281      10.79095566       6.07104206  T        0
O        3.10257758       8.88716840       4.17846578  T        0
O        4.93135633      10.80840326       3.67068737  T        0
O        4.95569786      18.45507997       4.26224147  T        0
O        3.62782721      12.09446565       8.49615420  T        0
O       14.05257040      17.14490665      12.11376248  T        0
O       14.26007420      12.51339646      12.13670518  T        0
O        5.94327743      11.24607794       7.54572210  T        0
O        5.86969667      19.16497520       7.63855270  T        0
O       14.23524856       8.88782462       6.53199076  T        0
O        4.03910168       9.41175933       8.26458697  T        0
O        6.34668550       9.92549462       1.52461301  T        0
O        8.17959958      12.55964480       8.00614873  T        0
O        7.81348883      17.35249306       8.10890040  T        0
O       12.49328764       7.37373456       5.07490118  T        0
O        8.12088469      10.76857714       6.05155375  T        0
O        7.94465417      18.64507912       5.87696942  T        0
O       11.80932269       8.52968081       7.36297340  T        0
O        7.52627058      11.38790406       3.38111296  T        0
O        7.39860839      18.64680355       3.27850899  T        0
O       12.58747563       8.30949174       9.97598941  T        0
O        8.57691018       8.66169565       4.01383196  T        0
O       11.54081828      10.62924553       8.93080262  T        0
O       12.00930988      19.01221356       9.38641114  T        0
O        5.74108094      12.53835774       1.76152018  T        0
O        5.55262163      17.32330370       1.88490442  T        0
O       10.08808878      17.06339650       9.56513578  T        0
O       10.03616939      12.92146018       9.83296993  T        0
O       10.24137519       6.58442096       3.72064147  T        0
O        7.69581361      16.68606072      10.70041574  T        0
O        7.36944402      13.38171051      10.53194113  T        0
O       12.61234002       6.44193528       2.58800135  T        0
O        8.65407491      14.94339371       8.81058073  T        0
O       12.04912373       4.84154563       4.72994712  T        0
O       15.70033425      12.62199632       9.95041888  T        0
O       15.41844355      17.22647987       9.91220402  T        0
O        5.45698398      14.94367013       0.73530614  T        0
O        3.77542420      16.84409621      -0.14195882  T        0
O        5.97608238       6.60076745       6.38999349  T        0
O        3.85032944      12.91073703      -0.15910293  T        0
O       14.09123451      13.13368637       6.81847219  T        0
O       14.20111978      16.91418374       6.64589321  T        0
O        7.70773305       4.74764332       7.46425045  T        0
O       12.43144060      15.05020751       5.85640748  T        0
O        8.45928694       6.55523310       5.63597025  T        0
O       11.44008234      13.13770431       7.38689590  T        0
O       11.67861618      17.08154943       7.47603504  T        0
O        7.72133629       6.29009462       3.03689147  T        0
O       12.99223833      12.94861014       9.76444240  T        0
O       12.74050147      16.55241326       9.83713775  T        0
O       14.47449970      14.83956464      10.86580825  T        0
Si       8.44483331       8.47931953       9.15491223  T        0
Si      11.57449393      18.74688709       4.05325801  T        0
Si      11.70326142      11.21795607       4.21180975  T        0
Si       3.54292170      10.44996877       4.48005536  T        0
Si       4.34945222      10.89730950       7.60549365  T        0
Si       7.56027217      11.07527531       7.51410944  T        0
Si       7.46813026      18.80806664       7.42137906  T        0
Si      12.68362465       8.68420172       6.01729943  T        0
Al       8.57055937      10.29781525       4.44371582  T        0
Si       8.42494952      19.21433086       4.42780101  T        0
Si      11.54063112       9.02526516       8.91650267  T        0
Si       6.08596813      11.16191471       2.57765473  T        0
Si       5.81426558      18.61563683       2.85966924  T        0
Si       8.55975846      16.55004834       9.30493285  T        0
Si       8.56477183      13.38010873       9.42157559  T        0
Si      11.81885076       6.31305459       4.03141935  T        0
Si       5.28720471      16.55684656       0.46905576  T        0
Si       5.35208704      13.35377239       0.38171540  T        0
Si       7.51619770       6.29811067       6.92767548  T        0
Si      12.58534154      13.46677940       6.23132676  T        0
Si      12.62410552      16.63429672       6.22594386  T        0
Si       8.72546972       7.05773044       4.10244600  T        0
Al      11.54033207      12.34251200       9.09348551  T        0
Si      11.61690006      17.44412441       9.08403066  T        0
Si      14.31236808      13.22067985      10.63979736  T        0
Si      14.17855894      16.41875007      10.64283787  T        0
O        8.43481720      19.96844055       8.09002577  T        0
O        5.33077823      20.02362268       2.14516793  T        0
O        8.33279006      20.84760127       4.59583734  T        0
O        6.38668511      17.19937744      -0.57107787  T        0
O        6.43775133      13.03674756      -0.80957374  T        0
H        1.81269882      11.30123319       3.09859993  F        0
H        7.07153747       8.87866318      10.98534327  F        0
H       13.03074803      18.74401529       2.26762503  F        0
H       13.03074804      10.85204106       2.26762503  F        0
H       12.34310542      20.30287261       5.56688324  F        0
H        3.60112680       8.06005012       4.30646574  F        0
H        4.05829635      18.79668859       4.41071282  F        0
H        4.03182275      12.92715973       8.82439874  F        0
H       14.40563884      18.04556895      12.19637069  F        0
H       14.40563885      11.55048737      12.19637067  F        0
H        5.06295559      18.75104696       7.26028496  F        0
H       15.03932990       8.88569483       5.99268334  F        0
H        4.11249823       9.08086468       9.18193973  F        0
H        5.72719027       9.20254625       1.33756862  F        0
H       13.54926599       8.42132791      10.11787432  F        0
H       11.52310955      19.83515307       9.21116341  F        0
H        6.74596320      16.92620537      10.74076342  F        0
H        6.74596321      12.66985099      10.74076342  F        0
H       13.35632228       7.06085325       2.51220488  F        0
H       11.61525895       4.01919395       4.45233654  F        0
H       15.75661379      12.42699387       9.00459924  F        0
H       15.75661380      17.16906248       9.00459925  F        0
H        2.98936131      16.34896307       0.14601228  F        0
H        5.18772305       6.48136951       6.94399129  F        0
H        2.98936131      13.24709329       0.14601228  F        0
H       14.91456245      13.24933472       6.30897701  F        0
H       14.91456244      16.34672163       6.30897701  F        0
H        7.92514400       4.01763560       6.85279547  F        0
H        6.78202892       6.52695113       2.93525138  F        0
H        8.32625906      20.60985804       8.81306681  F        0
H        5.72719026      20.39380587       1.33756863  F        0
H        8.66651872      21.47399316       3.93953912  F        0
H        6.36643797      17.19386972      -1.54340896  F        0
H        6.36643797      12.40218664      -1.54340896  F        0
Fe       9.59870969      13.95421650       6.88743156  T        0
Fe       8.68351145      12.94279266       4.02058355  T        1
O        9.63312054      14.48971778       4.86465201  T        2
O        8.23890659      14.35931403       5.43160380  T        3
