138
Lattice="19.123 0.0 0.0 0.0 14.277 0.0 0.0 0.0 7.5465" Properties=species:S:1:pos:R:3:move_mask:L:1:tags:I:1 i=128 E=-2603.9155142701 regions="_JSON [\"Active\"]" n_terminators=32 energy=-929.2275260706239 pbc="F F F"
O       15.79566083       8.40285949       5.77191459  T        0
O       13.04685129       1.35575905       2.24029460  T        0
O       15.77021435       5.89291780       5.75481993  T        0
O       12.98225379      12.95295102       2.20219202  T        0
O       12.76115539      13.16618982       5.63927789  T        0
O       15.80631880       5.89967034       1.70980562  T        0
O       12.75635916       1.10280853       5.64931689  T        0
O       15.79189706       8.40667307       1.72537633  T        0
O       17.12187190      10.94073619       6.25410560  T        0
O       11.85926294       3.63058675       2.38492202  T        0
O       17.00393028       3.32718903       6.25445010  T        0
O       11.85834224      10.64488902       2.38127539  T        0
O       11.63978387      10.81867007       5.09166531  T        0
O       17.06970366       3.56103094       1.23562064  T        0
O       11.56435348       3.41811152       5.09262692  T        0
O       17.07333275      10.72630833       1.24175427  T        0
O       16.16205117      10.16620888       3.65749424  T        0
O       12.60341706       2.76944219      -0.08062218  T        0
O       16.14885761       4.13880839       3.64056312  T        0
O       12.60877021      11.48364434      -0.08496670  T        0
O       14.25623404      10.87270209       5.66290606  T        0
O       14.41256954       3.63011366       1.58973716  T        0
O       14.17779868       3.45245834       5.58615398  T        0
O       14.42225760      10.69944978       1.62017181  T        0
O       11.52483112       8.46120654       3.81486089  T        0
O       17.31984423       1.14114061      -0.03286756  T        0
O       11.55733803       5.79934821       3.84530940  T        0
O       17.32176918      13.13938289      -0.03605630  T        0
O        9.50955708      10.26505888       3.45057560  T        0
O        9.50086761       4.07296796       3.40233795  T        0
O       13.43170066       7.17120701       5.16322070  T        0
O       13.48406088       7.13731001       2.51802434  T        0
O       14.23876235       7.15138281      -0.06244217  T        0
Al      15.81981396      10.19995210       5.37565101  T        0
Si      12.97452646       2.82720829       1.51716903  T        0
Al      15.75622726       4.10040107       5.34585969  T        0
Si      12.96504502      11.46216849       1.51588776  T        0
Si      12.83294519      11.54831023       5.99027634  T        0
Si      15.84167593       4.20990645       2.09019456  T        0
Si      12.79627546       2.72750129       5.97349450  T        0
Si      15.84467606      10.09495782       2.10867271  T        0
Si      11.11614654      10.06421107       3.73340963  T        0
Si      17.58309951       2.77623936      -0.12256454  T        0
Si      11.10579605       4.21008103       3.73136036  T        0
Si      17.58452137      11.50436914      -0.12145921  T        0
Si      14.74963848       7.15599986       6.10385592  T        0
Si      14.70099412       7.14865322       1.47132059  T        0
Si      12.46546762       7.14074758       3.84160902  T        0
O       21.62239955       3.17746678       8.99942812  T        0
O       21.07743112       1.20089967       7.22575128  T        0
O       19.23890855       2.99086220       7.67843112  T        0
O       19.21248639      11.30813302       7.99923652  T        0
Si      20.87463032       2.80148473       7.56252183  T        0
O       22.58124976       5.97861536       5.28727467  T        0
O       21.55488196       3.67897259       6.32384467  T        0
O       22.26111754       3.79977995       3.74501089  T        0
O       24.22080665       3.96776242       5.71152019  T        0
O       19.18446863       3.05596302      -0.37706299  T        0
O       19.18466457      11.22828376      -0.37758977  T        0
Si      22.65571165       4.32542759       5.27303614  T        0
O       12.83257153       1.21942731       9.71767116  T        0
O       12.81813130      13.07193172       9.71377880  T        0
O       15.55746088       5.80521384       9.65430060  T        0
O       15.52829257       8.46832049       9.68097225  T        0
O       11.56005295       3.56021791       9.90993081  T        0
O       11.50320121      10.76320952       9.92558017  T        0
O       16.89338046       3.56360513       8.89280189  T        0
O       16.78799742      10.74353759       8.87222173  T        0
O       16.21445516      10.46113024      11.38815140  T        0
O       12.50497079       2.90497967       7.58624103  T        0
O       16.23146156       3.82516790      11.38753402  T        0
O       12.49602227      11.37651718       7.59485029  T        0
O       14.27465107       3.48703513       9.52522938  T        0
O       14.20529781      10.75996419       9.58279667  T        0
O       17.30085335       1.10262380       7.82402246  T        0
O       17.31984975      13.19437093       7.80351468  T        0
O       13.14998331       7.10012546       9.84607703  T        0
O       14.34925403       7.14708472       7.65704427  T        0
Si      12.82630817       2.79104214       9.18729270  T        0
Si      12.79141034      11.49551302       9.20064142  T        0
Si      15.72571606       4.17041049       9.85417504  T        0
Si      15.67634013      10.10630360       9.87021251  T        0
Si      17.59432832       2.73471570       7.63151651  T        0
Si      17.60385710      11.55224238       7.67382195  T        0
Si      14.68338269       7.13196258       9.25579530  T        0
O       15.52347314       8.46981848      -2.02185158  T        0
O       15.51844527       5.80906675      -2.01387442  T        0
O       12.82815554      13.07557625      -2.25701291  T        0
O       12.83000427       1.20182363      -2.26643234  T        0
O       16.76939745      10.79443314      -1.35417963  T        0
O       16.76920850       3.48261277      -1.35736171  T        0
O       11.51969274      10.75147589      -2.38813499  T        0
O       11.51812955       3.52487459      -2.38658501  T        0
O       16.28997280      10.34526781      -3.83773040  T        0
O       16.28301222       3.93160467      -3.83326742  T        0
O       14.21268695      10.76693357      -2.12844375  T        0
O       14.20828697       3.51306564      -2.11721729  T        0
O       13.12978410       7.14311942      -2.30754931  T        0
Si      15.67886093      10.08566308      -2.33565689  T        0
Si      15.67366794       4.19380471      -2.33138663  T        0
Si      12.81514357      11.51195973      -1.71539559  T        0
Si      12.81200756       2.76133877      -1.71269174  T        0
Si      14.63609889       7.14243136      -1.65949487  T        0
H       13.50938118       0.51971906       2.07492992  F        0
H       13.50958039      13.75682243       2.07498241  F        0
H       13.51084140      13.75504172       5.44776650  F        0
H       13.50975252       0.52161770       5.44778410  F        0
H       16.56036088       0.51548555      -0.00076213  F        0
H       16.56020813      13.76127004      -0.00066979  F        0
H        8.59739021      10.07362933       3.76217937  F        0
H        8.59637561       4.20354031       3.76204115  F        0
H       22.00636260       3.98381786       9.40800429  F        0
H       21.68544240       0.51556882       7.54734209  F        0
H       20.08739461      11.34211663       7.54749186  F        0
H       23.07136830       6.61169953       5.84807952  F        0
H       22.32326696       4.16316078       2.82892343  F        0
H       24.75385446       3.15950316       5.84781029  F        0
H       20.08726577       2.93486642      -0.00052988  F        0
H       20.08739461      11.34211663       0.00099186  F        0
H       13.50938118       0.51971906       9.62142992  F        0
H       13.50958039      13.75682243       9.62148241  F        0
H       11.39369377       3.98884644      10.77146895  F        0
H       11.39439525      10.28733182      10.77116771  F        0
H       15.92688062      10.11457984      12.25007275  F        0
H       15.92754156       4.15729643      12.25107281  F        0
H       16.56036088       0.51548555       7.54573787  F        0
H       16.56020813      13.76127004       7.54583021  F        0
H       12.88235039       7.13795337      10.76981689  F        0
H       13.51084140      13.75504172      -2.09873350  F        0
H       13.50975252       0.52161770      -2.09871590  F        0
H       11.39521725      10.28762784      -3.24237523  F        0
H       11.39412799       3.98861071      -3.24188863  F        0
H       15.92569105      10.11584057      -4.70878458  F        0
H       15.92661844       4.15901570      -4.70770176  F        0
H       12.88191441       7.13773895      -3.23957932  F        0
Fe      17.29639654       7.13194045       5.17847470  T        0
Fe      17.36739633       7.15639156       2.34030123  T        1
O       18.48010942       7.15824890       3.76620175  T        2
