136
Lattice="20.102 0.0 0.0 0.0 19.731 0.0 0.0 0.0 13.253" Properties=species:S:1:pos:R:3:move_mask:L:1:tags:I:1 i=77 E=-3472.0240129048 regions="_JSON [\"Active\"]" n_terminators=34 energy=-904.1494308013564 pbc="F F F"
O       11.97535627      16.84533935       4.68343686  T        0
O       11.91255735      12.74993222       4.71641576  T        0
O        6.08736766      18.83544437      10.92522346  T        0
O        6.90849969      10.68970843      10.75872770  T        0
O       17.04335194      10.68093973       9.07470191  T        0
O       16.29824869      18.95368628       8.84793867  T        0
O       14.37569680      17.39507157      11.86776868  T        0
O       14.15109135      11.97533161      11.91582935  T        0
O        5.77451959      18.97382361       6.63471005  T        0
O       16.12844062      19.21820423      12.96812287  T        0
O       16.14257373      10.68527221      13.24573935  T        0
O       14.04299667      19.98941296      11.44568910  T        0
O       14.73601075       9.31590731      11.45240625  T        0
O        7.80126792      12.43904526       7.50266163  T        0
O        7.83945671      17.36795510       7.41643835  T        0
O        8.19963462      19.49157207       5.69959296  T        0
O       11.92451886      10.62407919       9.39547416  T        0
O       11.75432769      19.07037357       9.10013306  T        0
O       16.34960274      17.22674833       4.68155125  T        0
O       16.22313681      12.54969953       4.49569861  T        0
O       10.07304996      17.01476982       9.32915970  T        0
O        9.86636168      12.44678767       9.23677200  T        0
O        7.72214205      16.77272451      10.32433697  T        0
O        7.41021153      13.09672714      10.12934583  T        0
O       17.86852352      13.17759834       9.40655199  T        0
O       17.87823055      17.10464685       9.77520099  T        0
O        8.65745009      14.72341261       8.45482590  T        0
O        6.32409656      16.70986090      12.53577814  T        0
O        5.98775957      12.75169660      12.36876311  T        0
O       16.63165201      12.58031476       7.16258069  T        0
O       16.65331539      16.82939312       7.30426270  T        0
O        5.21023998      16.42745514      10.00284887  T        0
O        4.81658707      12.20260494      10.01906827  T        0
O       15.20687136      12.72048669       9.38269736  T        0
O       15.24616582      16.57181595       9.49318305  T        0
O       15.92497537      14.79202656       5.78117879  T        0
O       14.16543605      12.78677157       6.21866268  T        0
O       14.19811580      16.78773445       6.22196746  T        0
O       12.40565067      14.77973754       6.25900602  T        0
O       11.80638953      12.41878435       7.38236030  T        0
O       11.85367679      17.10903276       7.35467427  T        0
O       12.34366681      13.11990603       9.92046990  T        0
O       12.59929337      16.67398444       9.92415422  T        0
O       13.92917079      14.83318577      11.09201270  T        0
Si      14.57063052      18.88952251      12.52610916  T        0
Si      14.64146190      10.56484267      12.54607928  T        0
Si       7.39092892      18.86385571       6.99487339  T        0
Al       8.47604967      16.41608839       8.70815203  T        0
Si       8.42758486      13.18363239       8.83643505  T        0
Si       6.28193773      17.22135705      10.97865033  T        0
Si       6.25245824      12.19821477      10.84654004  T        0
Si      16.63180072      12.25830122       8.77899846  T        0
Si      16.53870252      17.34810557       8.84896477  T        0
Si      15.73502654      13.17449665       5.93550249  T        0
Si      15.77522962      16.39909806       5.98581430  T        0
Si      12.58358741      13.16703529       6.15533083  T        0
Si      12.62051328      16.37660077       6.12062131  T        0
Si      11.43748058      12.13479175       8.94972599  T        0
Si      11.56856495      17.48763880       8.90247407  T        0
Al      14.04893600      13.07960039      10.59831170  T        0
Si      14.09751623      16.38871632      10.61701854  T        0
O       14.04538291      20.72853568      15.94515108  T        0
O        5.41503339      22.36173691      14.81994201  T        0
O        3.89231658      20.23601686      14.15733536  T        0
O        6.07089828      19.82089484      15.46765178  T        0
Si       5.43588203      20.79168796      14.31474257  T        0
O        9.92949991      21.07583502       9.22825097  T        0
O        7.56673256      21.05436998      10.54177617  T        0
O       17.94847393      21.09585450       9.24067927  T        0
O        7.83108809      22.60183608       8.39784738  T        0
O        7.75377725      19.89228366       8.20959612  T        0
O        6.32296581      20.64067753      12.93666217  T        0
O       16.54260482      21.00802738       7.07416533  T        0
O        4.86735952      21.19696902      10.89561744  T        0
O       15.24142473      21.27320455       9.44249508  T        0
O       11.53588275      20.96615815       7.16906948  T        0
O       12.58014242      21.42695016       9.65689550  T        0
O       13.99962723      22.69797870      11.38446021  T        0
Si       8.29107822      21.16223165       9.06505112  T        0
Si       6.26530190      20.42285434      11.31706330  T        0
Si      16.49779460      20.57025652       8.66200366  T        0
Si      11.43722514      20.64568781       8.78653806  T        0
Si      13.98221343      21.32030146      10.48823747  T        0
O       12.09420860      18.77554952      15.96540429  T        0
O       13.69092321      19.00608910      13.89220176  T        0
O       13.62833036      10.09147585      13.77319541  T        0
O        4.87973463      18.31519294      17.43998283  T        0
O       14.65025331      18.17740641      16.32897735  T        0
O        7.46304618      18.02532049      16.87429998  T        0
O        6.07176813      12.14610519      14.91153850  T        0
O        5.63707227      17.17822342      15.11312176  T        0
O        5.50737556      14.69936536      14.13741089  T        0
O        3.86469488      16.58591670      13.06881238  T        0
O        3.68367186      12.73090613      13.84761758  T        0
Si      13.62417646      19.18442322      15.52220643  T        0
Si       5.98770069      18.36292806      16.21326552  T        0
Si       5.33574456      16.28950319      13.77472151  T        0
Si       5.30145617      13.09725858      13.81453803  T        0
H       11.77741499      17.76721957       4.45015374  F        0
H       11.77741500      11.82883679       4.45015372  F        0
H        6.59189033       9.81912404      11.03827922  F        0
H       16.64303307       9.81912404       8.84117322  F        0
H        5.06295559      18.75104696       7.26028496  F        0
H       16.97340650      18.78964577      12.75613404  F        0
H       16.97340651      10.80641058      12.75613404  F        0
H       14.16364097       9.08086469      10.69751272  F        0
H        7.69777211      11.47779022       7.44841170  F        0
H        8.50665683      19.01129957       4.91774358  F        0
H       11.52310774       9.76092419       9.21110646  F        0
H       15.87290964      17.87210703       4.12309272  F        0
H       15.87290964      11.72394929       4.12309273  F        0
H       18.05303808      13.25020103      10.35989921  F        0
H       18.05303809      16.34585533      10.35989921  F        0
H        4.26454119      16.60174699       9.87579966  F        0
H        4.26454119      12.99430937       9.87579967  F        0
H       13.65226955      21.53630200      15.57301841  F        0
H        6.01932000      22.79280763      15.45091456  F        0
H        3.12887898      20.67205847      13.74983427  F        0
H       18.28958667      21.16688107      10.15436837  F        0
H        7.84356087      22.87259074       7.45668424  F        0
H       16.07044730      20.68412712       6.28158542  F        0
H        4.52133035      21.07133226      10.00226603  F        0
H       12.20788616      20.61981982       6.55602502  F        0
H       14.56690736      22.82060840      12.16034191  F        0
H       11.86384156      18.29482316      16.78088422  F        0
H       13.51650676      10.58100877      14.61047976  F        0
H        4.05829635      18.79668859      17.66371282  F        0
H       15.58095514      18.39037197      16.50370227  F        0
H        8.12388129      18.66305472      17.21761942  F        0
H        5.82176689      11.72394931      15.75639142  F        0
H        2.98936131      16.34896307      13.39901228  F        0
H        2.98936131      13.24709329      13.39901228  F        0
Fe       9.45748757      17.01914898      11.37509140  T        0
Fe      11.68611682      14.76915872      10.89461569  T        1
O        9.44866130      18.53021761      12.09135990  T        2
O       10.33985274      15.51290779      11.88701421  T        3
