144
Lattice="24.397 0.0 0.0 0.0 24.397 0.0 0.0 0.0 24.397" Properties=species:S:1:pos:R:3:move_mask:L:1:tags:I:1 i=41 E=-6943.8331748197 regions="_JSON [\"Active\"]" n_terminators=34 energy=-970.2775828263377 pbc="F F F"
O       21.64319190       2.61595605       0.08506447  T        0
O       21.83472271       6.21494777       3.50237230  T        0
O       15.69852822       9.78206856       6.21489150  T        0
O       20.84558036      12.36388803       3.65449626  T        0
O       15.55155301       6.28347567       9.72319444  T        0
O       21.84448200      -0.15985279       2.62574889  T        0
O       18.29524872       9.74567474       3.49286386  T        0
O       21.94265324       3.42380857       6.35555573  T        0
O       18.43205392       3.31781138       9.68328407  T        0
O       23.70476064       1.61241670       1.93488482  T        0
O       22.67756518       5.49122493       7.93922520  T        0
O       22.75270876       8.14129860       5.48356667  T        0
O       17.67678147      10.50616091       7.90898695  T        0
O       20.22606786      10.38206274       5.28473224  T        0
O       23.47576196       4.24918667       4.35074880  T        0
O       18.87125566      14.14579889       4.26215648  T        0
O       16.31936161      11.43802785       4.17276761  T        0
O       17.64647447       7.87602577      10.53240279  T        0
O       19.98513184       5.37042073      10.66076356  T        0
O       20.87724087       5.91313851       6.13778578  T        0
O       18.18768667       8.81638260       6.00502823  T        0
O       21.98589366      12.27470056       6.13046505  T        0
O       20.96159382       0.04394313       0.08312111  T        0
O       24.48279924       2.45627587       6.11633586  T        0
O       24.36989329       6.13890717       2.68459201  T        0
O       18.33508346      12.25144281       2.60440038  T        0
O       14.63878430      12.28251834       6.11930863  T        0
O       18.11407052       5.89731225       8.90910323  T        0
O       22.59677518       4.32382400       1.81661525  T        0
O       13.83831918      10.40099027       4.40643717  T        0
O       20.01916419       7.91722086       4.28156120  T        0
O       16.62586551       7.98695701       8.01886302  T        0
O       22.74179532      10.55100621       4.33366379  T        0
O       20.20539794      14.07402484       1.82803382  T        0
O       16.59958018      10.41807769       1.64595062  T        0
O       22.65640333       1.69047963       4.40632395  T        0
O       20.22371762       4.33073954       8.16580939  T        0
Al      23.27089050       2.91571063       0.90613471  T        0
Al      21.47182792       7.09150037       5.04800588  T        0
Si      17.01418885       9.25632827       7.05524759  T        0
Si      21.44406791      11.40715046       4.84742605  T        0
Si      23.14319957       0.72038937       3.16288207  T        0
Si      19.16809980       9.25122160       4.78138310  T        0
Si      21.41352184       4.77999292       7.13865839  T        0
Si      23.68916015       9.29494233       4.84217035  T        0
Si      23.13347665       2.95876795       5.32591412  T        0
Si      17.35609973      10.99616035       2.98351012  T        0
Si      19.19097904       4.74500617       9.35500200  T        0
Si      15.14040478      10.98596520       5.23221714  T        0
Si      19.56892452      13.22186080       3.08199709  T        0
Si      23.09362310       5.22427667       3.10589288  T        0
Si      16.98025588       7.00642152       9.29951928  T        0
O       24.51660027       8.68958044       3.53959338  T        0
O       28.01840944       8.84886201       0.17788417  T        0
O       28.88120340       6.76171732       1.74519384  T        0
O       26.20932213       6.72658080       4.39616480  T        0
O       24.76962824       9.90306932       5.93057608  T        0
O       26.35141791       7.73259015       1.86117819  T        0
Si      27.62740315       7.40503097       0.88519838  T        0
Si      25.37535902       7.35952455       3.11813297  T        0
O       28.00904957       5.93277299      -2.80667982  T        0
O       24.68791932       2.39904015      -2.72311910  T        0
O       26.24696364       1.73844498      -0.61093895  T        0
O       28.93435298       4.39614719      -0.71699025  T        0
O       27.22878440       6.28755289      -0.23525950  T        0
O       24.33260957      -0.16526199      -3.54136363  T        0
O       26.44252490       4.17898047      -1.78796240  T        0
Si      27.64987907       5.19369268      -1.37609161  T        0
Si      25.42765767       2.96961258      -1.35732236  T        0
O       18.29132245       2.56461488      -3.62799511  T        0
O       20.82558071       2.43240297      -6.23801334  T        0
O       15.65819135      -0.14358494      -3.69399956  T        0
O       20.14697541       0.74362517      -4.30587746  T        0
O       22.62478495       0.98751979      -1.78592107  T        0
O       18.87033343       1.83312880      -8.04324204  T        0
O       16.30907190       1.91090683      -5.32229373  T        0
O       24.36244514       3.48533893      -0.27747301  T        0
O       18.13486909       0.06879966      -2.68336647  T        0
O       21.97608928      -0.03280938      -6.16958079  T        0
O       18.32000479       3.47827661      -6.13249261  T        0
O       20.01763384       1.69741816      -1.80161804  T        0
O       22.64261230       1.69702111      -4.35252309  T        0
O       20.18532541       4.27283444      -7.95795023  T        0
O       16.57995568       4.42690697      -4.29564311  T        0
O       13.81081219       1.67623104      -4.31690414  T        0
Si      19.14595358       1.26672496      -3.12248537  T        0
Si      21.38153539       1.21467688      -5.28462866  T        0
Si      23.59482059       1.23438380      -3.09715024  T        0
Si      19.55425723       3.01262761      -7.10554402  T        0
Si      15.12118399       0.85714863      -4.89144926  T        0
Si      21.30715201       1.30402050      -0.88540900  T        0
Si      17.35221966       3.09261753      -4.86547523  T        0
O       18.46151591      -3.60823197       2.75377367  T        0
O       15.51639944      -3.63258464      -0.19341365  T        0
O       22.68641683      -1.81639372       0.62600172  T        0
O       20.02742582      -4.50013448       0.67951863  T        0
O       24.27568391      -0.29815381       3.79497082  T        0
O       18.07242238      -2.81558395       0.19041699  T        0
O       20.16560128      -1.96719984       1.64709888  T        0
Si      21.41593317      -0.98210106       1.27573496  T        0
Si      19.18295716      -3.23118682       1.31428413  T        0
O       17.66841886      -1.80917830      -4.40356522  T        0
O       17.62723186      -4.45572771      -1.75832552  T        0
O       14.62698440      -0.01958795      -6.19912612  T        0
O       16.57193271      -1.95343009      -1.90993152  T        0
Si      16.97611831      -0.97095686      -3.16012115  T        0
Si      16.94288904      -3.21298161      -0.91923283  T        0
H       15.43757911       5.57209275      10.38640946  F        0
H       17.77043311       3.23924387      10.38640412  F        0
H       23.12591797       5.02704618       8.65412107  F        0
H       17.22544067      10.92750153       8.65411313  F        0
H       19.36965547      14.75328399       4.82834093  F        0
H       17.22544070       8.65411150      10.92750362  F        0
H       20.85245744       5.02708867      10.92752556  F        0
H       21.54216027      12.99764967       6.60187561  F        0
H       24.89951425       2.85451703       6.89840128  F        0
H       15.05290853      12.70105704       6.89848521  F        0
H       13.44269068      10.71000821       3.56560630  F        0
H       19.78591980      14.73191782       1.24430354  F        0
H       15.76397041      10.70999753       1.24433830  F        0
H       28.68412771       8.95914275      -0.52719976  F        0
H       29.22534432       7.17131743       2.55494170  F        0
H       26.95194123       7.17131746       4.82834527  F        0
H       25.19630608       9.34383456       6.60185911  F        0
H       28.68420928       6.62630035      -2.86021198  F        0
H       26.95192867       1.27083937      -1.07240246  F        0
H       29.22533941       3.54426653      -1.07238230  F        0
H       25.19622735      -0.50276655      -3.24494277  F        0
H       19.36968740       1.27081557      -8.65438303  F        0
H       21.54221652      -0.50278066      -6.89866328  F        0
H       19.78593015       4.85484827      -8.63303166  F        0
H       15.76396555       4.85484859      -4.61106623  F        0
H       13.44267515       2.53358758      -4.61109248  F        0
H       17.77043326      -4.28747560       2.85995000  F        0
H       15.43756593      -4.28746062       0.52708992  F        0
H       23.12589418      -2.55519498       1.07214050  F        0
H       20.85246702      -4.82860575       1.07212032  F        0
H       24.89950013      -0.79949361       3.24468082  F        0
H       17.22541613      -2.55520754      -4.82860724  F        0
H       17.22541616      -4.82861063      -2.55520368  F        0
H       15.05289904      -0.79957238      -6.60212108  F        0
Fe      19.98712036       6.67451772       2.68791376  T        0
Fe      20.74451153       4.22185968       0.86288360  T        0
O       19.58622468       5.54817127       1.31762975  T        0
