135
Lattice="24.397 0.0 0.0 0.0 24.397 0.0 0.0 0.0 24.397" Properties=species:S:1:pos:R:3:move_mask:L:1:tags:I:1 i=41 E=-6943.8331748197 regions="_JSON [\"Active\"]" n_terminators=24 energy=-948.6544185688623 pbc="F F F"
O        9.62958805      14.57143335      -0.10267348  T        0
O       12.37604163       9.52402060       2.45109081  T        0
O       14.89532772      20.91680401       6.14007793  T        0
O       12.22910782      15.72832333       8.74505860  T        0
O        9.80636630      18.52599469       3.62874074  T        0
O       15.73361550       9.41710648       6.01730917  T        0
O       18.74615950      14.84783652       8.46752162  T        0
O       18.70105127      20.72363926       2.67696085  T        0
O       14.70963051       9.59391364       0.08340646  T        0
O        9.61902612      12.21041447       2.52422791  T        0
O       15.64678045      12.15101125       8.86243347  T        0
O       18.57869269       9.66588524       3.40051244  T        0
O        9.61544623      15.72871063       6.14832202  T        0
O       14.84797144      18.25488101       8.80184745  T        0
O       12.04294394      20.92476867       3.60807937  T        0
O       15.73953218      20.54003259      -0.54548064  T        0
O       11.61674310      13.88896338       1.83982117  T        0
O       14.03769674      11.58524809       1.80415488  T        0
O       13.16004389      20.21944332       8.08534006  T        0
O       10.24622919      17.44419864       8.12618035  T        0
O       10.12960603      20.48978251       5.44135529  T        0
O       16.66327397      19.32551920       1.66638425  T        0
O       10.33617240      10.22909297       0.87345582  T        0
O       11.41051954      16.51720181       4.34398681  T        0
O       14.17010350      19.09885719       4.29413155  T        0
O       14.11187170      16.46938737       6.97622471  T        0
O       16.68278569      11.33517265       4.37188401  T        0
O       16.63997793      13.90398901       7.07494125  T        0
O       12.09344967      11.97522105       3.54260465  T        0
O       12.34626504      21.78599644       6.14092923  T        0
O       12.28675464      18.25223750       9.61557482  T        0
O        8.78782315      18.28084905       6.08993033  T        0
O       18.24167497      18.16116809       3.50764691  T        0
O       12.22647028       8.62530009      -0.04531542  T        0
O        8.68634190      12.06302191      -0.00396783  T        0
O       12.14676708      14.82916089       6.23294563  T        0
O       12.24960818      18.20341306       2.47794962  T        0
O       15.80706615      18.42590998       6.29354442  T        0
O       18.26482057      15.76200675       5.97916578  T        0
O       18.35900921      12.21766547       2.44618438  T        0
O       14.96757710      12.03172067       6.24671582  T        0
O       10.31666677      16.50384605       1.92010082  T        0
O       14.14867617      10.44835553       4.24026377  T        0
O       14.17311804      22.71768742       7.90951272  T        0
O       10.52162067      16.47391175      10.62919301  T        0
O        7.72971341      19.99164025       4.30458287  T        0
O       10.61998100      22.99382321       4.56492362  T        0
O       16.65007671      20.04338469       4.30258490  T        0
O       16.52200828      10.47063185       1.85422174  T        0
O       10.51328199      13.98154640       4.32014473  T        0
O        7.72917051      16.47316006       7.80418172  T        0
O       14.06659995      19.99232108      10.63495956  T        0
O       14.07567948      20.07121360       1.60151987  T        0
O        7.84911664      10.36367095       1.94197262  T        0
O       16.61925793      16.45128300       7.89169795  T        0
O       14.03750481      13.95087599       7.85154871  T        0
O       10.51797064       7.69226429       1.82064386  T        0
Al      10.85399935      15.24009462       0.88047592  T        0
Si      13.13248763      10.83685220       3.04326707  T        0
Si      13.63567161      21.41168578       7.05963133  T        0
Si      11.31581857      16.98580369       9.28008278  T        0
Si       9.12543579      19.33406386       4.88169718  T        0
Si      17.55957151      19.57508965       3.03120919  T        0
Si      15.29043668      10.88428748       0.88542238  T        0
Si      10.92107154      13.02962925       3.06861954  T        0
Si       9.09434520      16.99956280       7.05236902  T        0
Si      13.58741536      19.19220934       9.27898371  T        0
Si      11.30209647      21.52940054       4.90540549  T        0
Si      15.33781810      19.59526831       0.74896204  T        0
Si       9.10439525      11.21829441       1.31736193  T        0
Si      10.91485579      15.26893428       5.26508333  T        0
Al      13.12765264      19.70555707       3.04351309  T        0
Si      15.35603840      17.41754444       7.48293848  T        0
Si      17.56674214      10.91938343       3.05654007  T        0
Si      15.32894601      13.02653747       7.50148473  T        0
Si      11.33341225       9.00643203       1.27220766  T        0
Si      15.39073590      10.82775106       5.24410445  T        0
Si      17.57258808      15.22737619       7.36751954  T        0
Si      15.36084657      19.60988410       5.24450639  T        0
Si      10.89624260      17.44472764       3.08701933  T        0
Si      13.13244112      15.25851751       7.46074181  T        0
O       14.78589921      12.22872156      -2.65753333  T        0
O       15.67627763      18.30446882      -2.69552668  T        0
O       12.13240508      14.67103206      -2.49144042  T        0
O       18.63223104      15.57989090      -2.54817749  T        0
O       14.02323019      13.93462199      -0.74039244  T        0
O       16.71780509      16.54839332      -0.94496864  T        0
O       13.07899210      10.29378879      -1.92168862  T        0
O       10.11157515      12.87562801      -2.09698273  T        0
O       12.29067473      15.82489097      -0.03785884  T        0
O       15.72936229      12.07150240      -0.13606580  T        0
O       18.38215873      14.62656536       0.00047104  T        0
O       14.86192343      18.15055718      -0.00697850  T        0
O       12.24914683      12.22233056      -3.52110696  T        0
O       16.56357011      14.01765598      -1.75993582  T        0
O       14.08291348      10.45588379      -4.44815877  T        0
O        7.60876356      13.86627635      -1.62339357  T        0
O       14.15943849      16.36383716      -1.84812570  T        0
O       10.50217002      14.03540457      -4.49071735  T        0
O       14.12048026       7.79490975      -1.78335131  T        0
Si      15.31110638      13.06407818      -1.36477793  T        0
Si      15.37678389      17.36481135      -1.38685709  T        0
Si      13.10894422      15.23031356      -1.31532316  T        0
Si      17.60190598      15.21969021      -1.31033689  T        0
Si      13.52150320       9.06515532      -0.93603029  T        0
Si      11.22895062      13.44516963      -3.13945711  T        0
Si       9.01979014      13.36340973      -0.95393463  T        0
Si      13.52706094      11.28335250      -3.14895380  T        0
H       16.48559112       9.33840607       6.62628668  F        0
H       18.82464116      14.01032609       8.95915608  F        0
H       18.82463422      21.15752504       1.81198193  F        0
H       16.48560162      11.67124930       8.95913012  F        0
H       18.82463962       9.33839646       4.28720704  F        0
H       16.48550522      21.15749796      -0.52720744  F        0
H       19.09683476      17.79487503       3.24462109  F        0
H       19.09684364      15.44301376       5.59651532  F        0
H       19.09682945      12.70103459       2.85456062  F        0
H       13.68673605      23.15239550       8.63276462  F        0
H        9.66477675      16.80915558      10.95402362  F        0
H        7.34351903      20.83116256       4.61081863  F        0
H        9.66481601      23.15243056       4.61081458  F        0
H        7.34350493      16.80917637       8.63275504  F        0
H       13.68672539      20.83112809      10.95404502  F        0
H        7.34352333       9.66479174       1.48837704  F        0
H        9.66479163       7.34352337       1.48837704  F        0
H       16.48557283      18.82464187      -2.86023677  F        0
H       18.82464171      16.48557294      -2.86023676  F        0
H       19.09678362      15.05286173       0.50248505  F        0
H       13.68673308       9.66480596      -4.85513656  F        0
H        7.34352146      13.68671965      -2.53387758  F        0
H        9.66480591      13.68673318      -4.85513656  F        0
H       13.68671953       7.34352150      -2.53387758  F        0
Fe      13.55746185      16.95646445       1.53818581  T        0
Fe      13.72930227      13.79222152       1.56759044  T        1
O       14.48053381      15.40783995       1.95467120  T        2
