139
Lattice="19.123 0.0 0.0 0.0 14.277 0.0 0.0 0.0 7.5465" Properties=species:S:1:pos:R:3:move_mask:L:1:tags:I:1 i=128 E=-2603.9155142701 regions="_JSON [\"Active\"]" n_terminators=34 energy=-924.6947239636834 pbc="F F F"
O       15.46573158       8.48498449       5.56890522  T        0
O       13.13269324       1.17011582       1.44953303  T        0
O       15.65117896       5.88411260       5.47040219  T        0
O       12.96806042      13.18569094       1.49416670  T        0
O       12.66572591      13.28838018       5.59461515  T        0
O       15.63777930       5.98015942       1.90545678  T        0
O       12.73636287       1.11614699       5.48288709  T        0
O       15.49934256       8.56263960       1.71104819  T        0
O       17.13467176      10.67024394       6.11599374  T        0
O       11.90956874       3.42453965       2.51478226  T        0
O       16.98871993       3.34109499       6.24458818  T        0
O       11.87246906      10.85349268       2.50389588  T        0
O       11.60005197      10.83970842       5.16045508  T        0
O       16.98917231       3.99866270       0.90705943  T        0
O       11.56949551       3.48776414       5.15987426  T        0
O       16.96114757      10.67420329       1.08242682  T        0
O       16.28481623      10.26552781       3.63856361  T        0
O       12.46112634       3.25981911      -0.04760222  T        0
O       16.35520824       4.22510080       3.57123786  T        0
O       12.49388267      11.01945080      -0.03549659  T        0
O       14.23318559      11.17796655       5.62942145  T        0
O       14.46008855       3.49203588       1.76484054  T        0
O       14.21284780       3.36073105       5.46414110  T        0
O       14.43727026      11.00880124       1.87802195  T        0
O       11.46912976       8.51449426       3.79744990  T        0
O       11.42501949       5.78842269       3.72016398  T        0
O       17.33176286      13.15655484       0.00333515  T        0
O        9.49252191      10.37233095       3.49003312  T        0
O        9.48462542       3.91220082       3.45388960  T        0
O       13.26383501       7.05363568       5.13729673  T        0
O       13.31837515       7.17034444       2.43654796  T        0
O       14.10755859       7.05892865      -0.09265698  T        0
Al      15.57057648      10.20599653       5.30265928  T        0
Si      12.98338872       2.81349715       1.44971809  T        0
Al      15.76159104       4.06808391       5.28467356  T        0
Si      12.93742257      11.53258922       1.46817019  T        0
Si      12.74246681      11.67787093       6.00108815  T        0
Si      15.82322708       4.31583790       2.02262985  T        0
Si      12.81129262       2.71873152       5.93574798  T        0
Si      15.78936100      10.13791653       2.07039456  T        0
Si      11.09434063      10.12728716       3.75941769  T        0
Si      11.08617064       4.16629827       3.73941713  T        0
Si      17.55152544      11.53290838      -0.19530106  T        0
Si      14.67107610       7.12948809       5.96862639  T        0
Si      14.61376743       7.21885091       1.45981070  T        0
Si      12.35353089       7.13399806       3.77822659  T        0
O       21.60091553       3.17849597       9.02123302  T        0
O       21.63419147      11.07324914       8.93934436  T        0
O       20.99658945       1.16500547       7.32881415  T        0
O       21.01372365      13.10171512       7.29625752  T        0
O       19.21876069       3.00608028       7.67838689  T        0
O       19.22512234      11.23667268       7.60956421  T        0
O       24.17723164       7.15395619       7.66093649  T        0
Si      20.84863382       2.78338873       7.59111026  T        0
Si      20.86643092      11.48007225       7.52853164  T        0
O       22.94397960       8.51330845       5.66622167  T        0
O       22.91508570       5.80532499       5.66035937  T        0
O       22.42499965       8.38381732       1.57795707  T        0
O       21.47424218      10.64267672       6.22694185  T        0
O       21.54724515       3.63587951       6.34598010  T        0
O       21.51688279      10.80063998       1.14615919  T        0
O       22.22009627      10.13992015       3.64238032  T        0
O       21.97515080       4.13055083       3.74862970  T        0
O       23.99812834      11.05159900       5.24988340  T        0
O       24.18794983      10.32675342       1.69831197  T        0
O       24.04616278       3.34836394       5.20058034  T        0
O       20.90280485      13.18397477      -0.00288948  T        0
O       19.17732106      11.27112533      -0.20951966  T        0
O       25.23657431       7.14674737       5.27638020  T        0
Si      22.66879117      10.07428792       5.22643588  T        0
Si      22.63825921       4.22230258       5.26001986  T        0
Si      22.60785947       9.95915317       2.03959037  T        0
Si      20.80611845      11.54594969      -0.15065080  T        0
Si      23.77367312       7.14473035       6.05187306  T        0
O       21.52709910      11.09004985      -1.56761494  T        0
O       12.83049179       1.21617406       9.72798654  T        0
O       12.84594586      13.06431712       9.80291653  T        0
O       15.52796873       5.81161575       9.66917449  T        0
O       15.54194008       8.46767702       9.53025361  T        0
O       11.58380564       3.58073002       9.89815455  T        0
O       11.53769252      10.74116970       9.91887832  T        0
O       16.88420479       3.58698208       8.88232763  T        0
O       16.81372103      10.74027579       8.79522598  T        0
O       16.22392850      10.37504122      11.34950491  T        0
O       12.60492311       2.85604878       7.56698562  T        0
O       16.26013329       3.84960230      11.38916314  T        0
O       12.48487727      11.48817568       7.61082592  T        0
O       14.28605805       3.47592750       9.55557419  T        0
O       14.24478027      10.78693212       9.52253111  T        0
O       17.28523623       1.12099289       7.82312598  T        0
O       17.26384975      13.07714973       7.43223526  T        0
O       13.16031135       7.18823309       9.83913467  T        0
O       14.39191738       7.02519122       7.56716905  T        0
Si      12.84742869       2.78521589       9.19062635  T        0
Si      12.80580536      11.51597561       9.21708801  T        0
Si      15.72892211       4.18267336       9.86360487  T        0
Si      15.68861343      10.08055058       9.81211626  T        0
Si      17.57875006       2.75050179       7.62845837  T        0
Si      17.58856779      11.45707652       7.52736560  T        0
Si      14.67016580       7.11647778       9.17703919  T        0
O       16.82037742      11.03882027      -1.60348148  T        0
H       13.50938118       0.51971906       2.07492992  F        0
H       13.50958039      13.75682243       2.07498241  F        0
H       13.51084140      13.75504172       5.44776650  F        0
H       13.50975252       0.52161770       5.44778410  F        0
H       17.29134854       3.14797220       0.53999843  F        0
H       12.76076393       2.97683097      -0.93375646  F        0
H       12.76174962      11.29928001      -0.93393629  F        0
H       16.56020813      13.76127004      -0.00066979  F        0
H        8.59739021      10.07362933       3.76217937  F        0
H        8.59637561       4.20354031       3.76204115  F        0
H       14.60982961       7.13673871      -0.92783774  F        0
H       22.00636260       3.98381786       9.40800429  F        0
H       22.00483182      10.29715766       9.41435165  F        0
H       21.68544240       0.51556882       7.54734209  F        0
H       21.68557806      13.76129914       7.54737584  F        0
H       23.63198861       7.14016697       8.47499567  F        0
H       23.06957714       7.66254159       1.68550051  F        0
H       22.32326696       4.16316078       2.82892343  F        0
H       24.76092223      11.11473374       5.84604825  F        0
H       24.75845825      11.12041654       1.68709931  F        0
H       24.75385446       3.15950316       5.84781029  F        0
H       21.68557806      13.76129914       0.00087584  F        0
H       25.36244212       7.13797332       4.30618001  F        0
H       22.00608000      10.28902905      -1.85963567  F        0
H       13.50938118       0.51971906       9.62142992  F        0
H       13.50958039      13.75682243       9.62148241  F        0
H       11.39369377       3.98884644      10.77146895  F        0
H       11.39439525      10.28733182      10.77116771  F        0
H       15.92688062      10.11457984      12.25007275  F        0
H       15.92754156       4.15729643      12.25107281  F        0
H       16.56036088       0.51548555       7.54573787  F        0
H       16.56020813      13.76127004       7.54583021  F        0
H       12.88235039       7.13795337      10.76981689  F        0
H       16.24044124      10.28985035      -1.86101282  F        0
Fe      16.87650361       6.38529766       3.88899088  T        0
Fe      17.97418245       9.37639989       4.65169130  T        1
O       18.15883212       7.80435772       3.30635574  T        2
O       18.56916516       7.49156090       4.72207389  T        3
