145
Lattice="20.102 0.0 0.0 0.0 19.731 0.0 0.0 0.0 13.253" Properties=species:S:1:pos:R:3:move_mask:L:1:tags:I:1 i=77 E=-3472.0240129048 regions="_JSON [\"Active\"]" n_terminators=32 energy=-986.0650206980836 pbc="F F F"
O       10.20399173       8.73552348       9.73650042  T        0
O       10.04182889      11.52222470       3.77116439  T        0
O        2.19127439      11.26591573       3.87581382  T        0
O        7.66202841       8.68001754      10.48899157  T        0
O        8.65175836       2.80647569       8.45215777  T        0
O        1.81786566      12.81011261       1.70313680  T        0
O        8.39454494       7.37762177       8.28478429  T        0
O        2.30303012      10.15645258       1.52691616  T        0
O        8.34462288      10.06821634       8.35653339  T        0
O        3.71120226      11.26886713       6.06575055  T        0
O        6.50410403       8.62151603      12.80772837  T        0
O        3.79516194       9.16985242       4.41971327  T        0
O        6.66042720      10.98332934      11.58695452  T        0
O        3.73350463       0.73765543       4.37211107  T        0
O        5.26674149       0.45160653      10.60299756  T        0
O        4.84659320      11.51859002       3.67663580  T        0
O        5.01302393       9.09746183      10.59681743  T        0
O        6.32796704       2.38958742       1.29878448  T        0
O        4.73041104      12.54896599       8.26940280  T        0
O        5.83480717       7.27640013       1.22600794  T        0
O        6.13490132      10.73792428       7.05010288  T        0
O        4.12342625       8.94777927      -0.00164742  T        0
O        3.89086583       9.99009417       8.35853692  T        0
O        5.76330826       9.81154344       1.93008360  T        0
O        2.40197100       2.54986515       1.06282757  T        0
O        8.04071636      12.60970445       7.59468075  T        0
O        2.03378524       7.56779687       0.88666108  T        0
O        8.47209559      10.70477560       5.80567091  T        0
O        2.74317652       1.52064579      10.32174495  T        0
O        7.48882080      11.16331525       3.39679343  T        0
O        2.48743345       8.32206490       9.95656907  T        0
O        9.07342926       9.02851533       3.82862296  T        0
O        8.33403569       0.80445580       3.80817858  T        0
O        4.63505765       2.33695957       8.74320556  T        0
O        6.24482112      12.48364918       1.55519968  T        0
O        4.48456817       7.39871951       8.60187550  T        0
O        0.02802745       7.03189096       2.96284783  T        0
O        0.09831886       2.71428726       2.54985405  T        0
O       10.44248185       2.54591494       3.64434897  T        0
O       10.21531527       6.57739314       3.63680799  T        0
O        2.46015936       6.93455346       3.79191124  T        0
O        2.45007327       3.00048629       3.72220833  T        0
O        1.62591904       4.85861384       2.01564771  T        0
O        3.82446438       7.05406947       6.03800206  T        0
O        3.75193953       2.93104724       5.95786357  T        0
O        5.12554356       6.92206892       3.75010636  T        0
O        5.14726376       2.83645647       3.68166157  T        0
O        4.22145524       4.95083041       7.49862161  T        0
O        6.31141423       6.50987510       6.88556837  T        0
O        6.52090631       3.25472441       6.78626529  T        0
O        8.51827963       4.99879945       7.07564122  T        0
O        8.52998103       7.23442122       5.65458451  T        0
O        8.88871600       2.66714035       5.77965817  T        0
O        7.69165999       6.84880504       3.12747957  T        0
O        7.79965585       3.24485668       3.38780392  T        0
O        6.07603265       4.88412790       2.29558486  T        0
Si       1.53986984      11.32606521       2.36361954  T        0
Si       8.65303733       8.70604555       9.19594500  T        0
Si       3.63481975      10.79950112       4.50063315  T        0
Si       6.45038583       9.36282442      11.34620408  T        0
Si       4.60018797      11.13601616       7.43308065  T        0
Si       5.60922382       8.80023074       0.67285389  T        0
Si       7.74116875      11.04208944       7.20788851  T        0
Si       2.52732164       9.01767135       0.38332635  T        0
Si       8.76554646      10.58852848       4.20794471  T        0
Si       4.12314355       1.04287840       9.55216725  T        0
Si       6.07029917      11.25306974       2.62313274  T        0
Si       3.97478368       8.72927630       9.39783501  T        0
Al       1.63587357       6.56362612       2.21465033  T        0
Si       1.61300364       3.28313833       2.31803290  T        0
Si       3.82544224       7.55159205       4.47355972  T        0
Si       3.78400988       2.35197379       4.40449978  T        0
Si       4.74782842       6.49896847       7.28386920  T        0
Al       4.90789210       3.27095873       7.33324674  T        0
Si       7.94330449       6.51464492       6.98432465  T        0
Si       8.10276768       3.40831907       7.01578474  T        0
Si       8.87764975       7.42837137       4.07478979  T        0
Si       8.89562970       2.31348973       4.18113606  T        0
Si       6.20109518       6.47520107       2.59877251  T        0
Si       6.33503876       3.30915248       2.66268591  T        0
O        6.77164354       9.18515221      -0.41184337  T        0
O        1.65116259       9.62128705      -0.87638522  T        0
O        2.04439055      -1.35228061       4.03859547  T        0
O        3.63430770      -1.28828157       6.09954777  T        0
O        4.62527322      -1.65224131       3.54507535  T        0
O        4.65659125      -2.74304553       8.14407363  T        0
O        6.00582156      -0.69260644       6.92592133  T        0
O        3.83364608      -0.22002072       8.52861228  T        0
Si       3.54385600      -0.87810357       4.52426194  T        0
Si       4.54485106      -1.24376565       7.46507482  T        0
O       -0.07434320      11.05339332       2.47805499  T        0
O       -4.57700018       7.27381844       5.27920760  T        0
O       -4.38094138       2.60617836       5.23592387  T        0
O       -2.23406402      11.20069844       0.79119248  T        0
O       -2.53225496      11.14858405       3.45222988  T        0
O       -1.71164272       0.74528171       2.98341361  T        0
O       -1.65869068       8.95132433       2.09580774  T        0
O       -4.77114964       2.79330892       2.48618399  T        0
O       -4.76267776       7.13043766       2.52295298  T        0
O       -1.89885011       2.27500723       0.79370373  T        0
O       -1.67658936       6.45371479       1.05272153  T        0
O       -2.39437677       3.20116890       3.36339509  T        0
O       -2.46229906       6.88040632       3.62615912  T        0
O       -4.27424527       4.93952109       4.09433133  T        0
Si      -1.61937722      10.59240399       2.19599828  T        0
Si      -1.46507865       2.25911372       2.38523037  T        0
Si      -1.48851920       7.36798910       2.40557773  T        0
Si      -3.96901765       3.34333613       3.81786907  T        0
Si      -4.05220595       6.54298556       3.89716439  T        0
H       10.95532307       8.85008497       9.12727255  F        0
H       10.94686465      11.30097846       4.04088346  F        0
H        8.32487049       1.96348467       8.80281458  F        0
H        2.20758188      13.00694286       0.83020008  F        0
H        6.01931354       8.91222751      13.59787507  F        0
H        6.45001595      11.67065412      10.93294989  F        0
H        5.99284639       0.93401564      11.03719697  F        0
H        5.69664664       1.68513527       1.05659762  F        0
H        4.03182275      12.92715973       8.82439874  F        0
H        2.35337064       1.61243811       0.82192755  F        0
H        8.21123678      12.90527891       8.50458507  F        0
H        1.92726146       1.06764952      10.59110356  F        0
H        1.92726146       8.79770260      10.59110356  F        0
H        8.57917594      -0.10444883       4.04180490  F        0
H        5.53537813      12.95496052       1.09262639  F        0
H       11.09748793       3.17088023       4.02620164  F        0
H       11.09748793       6.69447189       4.02620164  F        0
H        6.58577874       9.14969547      -1.35751146  F        0
H        1.54448592       9.14594745      -1.70877228  F        0
H        1.81269882      -1.43617684       3.09859994  F        0
H        5.52981240      -1.34062802       3.37578188  F        0
H        4.03182274      -3.06210338       8.82439872  F        0
H        6.92226376      -0.94135423       7.12331841  F        0
H       -4.35421061       8.18021682       5.56988654  F        0
H       -4.35421061       1.68513522       5.56988652  F        0
H       -2.15644976      10.75416907      -0.07046469  F        0
H       -3.49783775      11.30937631       3.49139018  F        0
H       -1.47168132      -0.10444883       2.58467926  F        0
H       -5.70518556       2.56164176       2.37811508  F        0
H       -5.70518557       7.30371036       2.37811510  F        0
H       -2.04192549       3.05661076       0.22907734  F        0
H       -2.04192548       6.80874135       0.22907734  F        0
Fe       0.61714735       6.48471303       4.78721947  T        0
Fe       2.52923617       4.52888029       6.35687161  T        0
O        0.99687302       5.87725460       6.65434473  T        0
O        0.61367213       4.69001457       5.79411371  T        0
