109
Lattice="20.102 0.0 0.0 0.0 19.731 0.0 0.0 0.0 13.253" Properties=species:S:1:pos:R:3:move_mask:L:1:tags:I:1 i=77 E=-3472.0240129048 regions="_JSON [\"Active\"]" n_terminators=28 energy=-717.6492352236744 pbc="F F F"
O       11.91863524      16.83940556       4.70410618  T        0
O       11.76634267      12.73814823       4.79206099  T        0
O        3.36095302      19.20853024       6.21983441  T        0
O        6.65189827      18.89749455      10.63234778  T        0
O        6.93200404      10.68608880      10.76818633  T        0
O       16.06740956      10.56293705       9.09086058  T        0
O       17.12408884      18.93877873       8.98191053  T        0
O        3.70423323      12.23389102       7.96026278  T        0
O        4.04241699      17.27620668       7.97522727  T        0
O       14.16640747      17.66662260      11.95411324  T        0
O       13.93734783      12.39412849      12.10445845  T        0
O        5.86315363      19.22151572       7.29909642  T        0
O       16.16283097      18.97309441      13.25889125  T        0
O        3.67768750      19.73599574       8.79650548  T        0
O       14.73571909      20.31822707      11.46356255  T        0
O        7.56028873      12.37069159       7.82127693  T        0
O        7.86778382      17.54092251       7.66648255  T        0
O        7.77202304      19.24544321       5.51783598  T        0
O       11.88453103      10.61212626       9.51159390  T        0
O       12.04016052      19.03064424       9.34599742  T        0
O       16.15091053      17.01203290       4.49203650  T        0
O       16.33531729      12.26840608       4.79287791  T        0
O       10.06805960      17.06726692       9.39926899  T        0
O        9.90446521      12.43003395       9.20620928  T        0
O        7.45472847      16.45545622      10.42718597  T        0
O        7.61343987      13.12307103      10.42628630  T        0
O       17.75799202      12.48415866       9.82907345  T        0
O       17.99950027      16.48123226       9.39436992  T        0
O        8.61332475      14.74226246       8.69590883  T        0
O        6.16591689      17.10069257      12.69726527  T        0
O        6.17046752      12.59139556      12.61527371  T        0
O       16.44990315      12.68377176       7.42887430  T        0
O       16.62673157      16.98923922       7.15836383  T        0
O        4.80840626      16.88623396      10.47647205  T        0
O        5.01391452      12.54828071      10.23182999  T        0
O       15.06721604      12.89180431       9.67051900  T        0
O       15.36024745      16.87641112       9.48102673  T        0
O       15.96965092      14.74787565       5.81501446  T        0
O       14.10139027      12.86194276       6.15054424  T        0
O       14.14277139      16.66957204       6.25806154  T        0
O       12.23532741      14.79992561       6.34187779  T        0
O       11.86747965      12.39631308       7.45030649  T        0
O       11.78930824      17.24532827       7.33777454  T        0
O        2.24571622      16.32521811       9.86417400  T        0
O        2.43532230      13.25450641      10.19735289  T        0
O       12.38838212      13.12260691       9.98902397  T        0
O       12.53634374      16.54312805       9.82197367  T        0
O        4.13302422      14.76490397       8.96505455  T        0
O       13.88165397      14.84561332      11.15406227  T        0
Si       4.28875103      18.85652759       7.53315615  T        0
Si      14.65614386      19.08205010      12.57145011  T        0
Si       7.49214564      19.02523542       7.13369181  T        0
Al       8.48937385      16.51359982       8.89273293  T        0
Si       8.46552899      13.15742956       8.94577710  T        0
Si       6.23692371      17.37104896      11.08161177  T        0
Si       6.36276830      12.19835527      11.04593767  T        0
Si      16.37798308      12.17989435       8.98521650  T        0
Si      16.72304377      17.34806925       8.76647503  T        0
Si      15.70895903      13.15027102       6.03650563  T        0
Si      15.72575775      16.36468175       5.94669571  T        0
Si      12.51272794      13.20528054       6.17884749  T        0
Si      12.54169408      16.39783871       6.16210505  T        0
Si      11.49933712      12.12049779       9.00614782  T        0
Si      11.54883135      17.51403547       8.93497615  T        0
Si       3.79104234      16.34686749       9.30234756  T        0
Si       3.81715660      13.18641529       9.30654592  T        0
Si      13.90645682      13.27959060      10.72966621  T        0
Al      14.14535972      16.55621594      10.64106516  T        0
O        8.34141822      20.24262444       7.90426371  T        0
O       13.65416896      19.55248641      13.80719124  T        0
O        5.95094817      12.57182032      15.28514436  T        0
O        5.89797040      16.98412091      15.35847568  T        0
O        5.51749556      14.80617062      13.89395868  T        0
O        3.69940079      16.83833692      13.84882349  T        0
O        3.71873404      12.75270871      13.81541178  T        0
Si       5.29437971      16.43093119      13.93882890  T        0
Si       5.30786102      13.18135638      13.90582442  T        0
H       11.77741499      17.76721957       4.45015374  F        0
H       11.77741500      11.82883679       4.45015372  F        0
H        3.46536401      19.01504758       5.26900440  F        0
H        6.59189912      19.77694965      11.03822749  F        0
H        6.59189033       9.81912404      11.03827922  F        0
H       16.64303307       9.81912404       8.84117322  F        0
H       16.64304187      19.77694965       8.84122497  F        0
H        4.35449611      11.55048736       7.68308178  F        0
H       14.40563885      11.55048737      12.19637067  F        0
H       16.97340650      18.78964577      12.75613404  F        0
H        4.11250309      20.51523557       9.18186357  F        0
H       14.16364583      20.51523556      10.69758889  F        0
H        7.69777211      11.47779022       7.44841170  F        0
H        8.50665683      19.01129957       4.91774358  F        0
H       11.52310774       9.76092419       9.21110646  F        0
H       11.52310955      19.83515307       9.21116341  F        0
H       15.87290964      17.87210703       4.12309272  F        0
H       15.87290964      11.72394929       4.12309273  F        0
H       18.05303808      13.25020103      10.35989921  F        0
H       18.05303809      16.34585533      10.35989921  F        0
H        1.73086688      16.98843832      10.35624453  F        0
H        1.73086689      12.60761804      10.35624453  F        0
H        8.32625906      20.60985804       8.81306681  F        0
H       13.51650675      19.01504758      14.61047976  F        0
H        5.82176689      11.72394931      15.75639142  F        0
H        5.82176689      17.87210706      15.75639142  F        0
H        2.98936131      16.34896307      13.39901228  F        0
H        2.98936131      13.24709329      13.39901228  F        0
Fe       8.44043993      14.91831224      11.31543969  T        0
Fe      11.58637416      15.11091009      10.86055678  T        1
O       10.09140752      15.45974954      12.32038091  T        2
O       10.19369026      14.03298700      11.85194683  T        3
