139
Lattice="19.123 0.0 0.0 0.0 14.277 0.0 0.0 0.0 7.5465" Properties=species:S:1:pos:R:3:move_mask:L:1:tags:I:1 i=128 E=-2603.9155142701 regions="_JSON [\"Active\"]" n_terminators=34 energy=-924.6947393769133 pbc="F F F"
O       15.46584410       8.48634570       5.56950125  T        0
O       13.13383248       1.16978411       1.44852956  T        0
O       15.65389023       5.88626144       5.47021172  T        0
O       12.96732515      13.18604352       1.49435516  T        0
O       12.66609502      13.28881207       5.59780734  T        0
O       15.63774349       5.98158857       1.90244990  T        0
O       12.73763428       1.11782660       5.48414955  T        0
O       15.49927309       8.56464298       1.71139744  T        0
O       17.13515860      10.67143683       6.11590949  T        0
O       11.91117389       3.42526389       2.51539345  T        0
O       16.98692865       3.34146415       6.24573132  T        0
O       11.87213314      10.85316821       2.50323361  T        0
O       11.60040223      10.83991139       5.16008185  T        0
O       16.99025552       3.99990286       0.90523461  T        0
O       11.56889847       3.48874095       5.16013006  T        0
O       16.95967192      10.67792778       1.08242268  T        0
O       16.28593438      10.26671748       3.63822366  T        0
O       12.46237479       3.25994484      -0.04706894  T        0
O       16.35599642       4.22742488       3.56949344  T        0
O       12.49524709      11.01921302      -0.03519262  T        0
O       14.23355714      11.17888890       5.62706637  T        0
O       14.46189477       3.49070049       1.76472295  T        0
O       14.21244954       3.36433151       5.46197733  T        0
O       14.43686498      11.00919154       1.87980137  T        0
O       11.46961968       8.51496387       3.79851563  T        0
O       11.42589600       5.78861787       3.72029921  T        0
O       17.33302036      13.15781993      -0.00198295  T        0
O        9.49244123      10.37166095       3.48941618  T        0
O        9.48491213       3.91519948       3.45201489  T        0
O       13.26506763       7.05341190       5.13708275  T        0
O       13.31856001       7.17144553       2.43661116  T        0
O       14.10626286       7.06296948      -0.09296817  T        0
Al      15.57155967      10.20685331       5.30271498  T        0
Si      12.98445602       2.81329407       1.45023457  T        0
Al      15.76207229       4.07054803       5.28413557  T        0
Si      12.93771010      11.53273205       1.46855440  T        0
Si      12.74299457      11.67755129       6.00095582  T        0
Si      15.82383804       4.31722796       2.02057988  T        0
Si      12.81208917       2.72094685       5.93526096  T        0
Si      15.78950971      10.13951649       2.07063218  T        0
Si      11.09424192      10.12760363       3.75918070  T        0
Si      11.08638741       4.16683114       3.73927703  T        0
Si      17.55296841      11.53329375      -0.19588697  T        0
Si      14.67202962       7.13028095       5.96867622  T        0
Si      14.61349307       7.22118342       1.45942300  T        0
Si      12.35391632       7.13436842       3.77860313  T        0
O       21.59923402       3.17979544       9.02064946  T        0
O       21.63610906      11.07373893       8.93909231  T        0
O       21.00243278       1.16830072       7.32120377  T        0
O       21.01290054      13.10197367       7.29665021  T        0
O       19.22006228       3.00471592       7.67479054  T        0
O       19.22425308      11.23632854       7.61413952  T        0
O       24.17803613       7.15647542       7.66135556  T        0
Si      20.85040726       2.78519235       7.58889531  T        0
Si      20.86524721      11.48020241       7.53001113  T        0
O       22.94646441       8.51759378       5.66759765  T        0
O       22.91688852       5.80936681       5.65745745  T        0
O       22.42398855       8.38376922       1.58265973  T        0
O       21.46871476      10.64191957       6.22680929  T        0
O       21.54880504       3.64188510       6.34678466  T        0
O       21.51892223      10.80171177       1.14663287  T        0
O       22.22095520      10.14155945       3.64374522  T        0
O       21.97515107       4.13074960       3.74857442  T        0
O       23.99125829      11.06256270       5.25773757  T        0
O       24.18932918      10.32585698       1.70020507  T        0
O       24.04800197       3.35278357       5.19976566  T        0
O       20.90250250      13.18450684      -0.00303732  T        0
O       19.17865897      11.27173185      -0.20640157  T        0
O       25.23885275       7.15049320       5.27672994  T        0
Si      22.66725642      10.07801133       5.22848725  T        0
Si      22.63943392       4.22572150       5.25925678  T        0
Si      22.60870935       9.95986156       2.04121100  T        0
Si      20.80733600      11.54637680      -0.15010672  T        0
Si      23.77542727       7.14811252       6.05184596  T        0
O       21.52986240      11.09139883      -1.56669598  T        0
O       12.82953014       1.21588619       9.72440647  T        0
O       12.84435439      13.06514889       9.80125852  T        0
O       15.53201288       5.81002124       9.66449278  T        0
O       15.53916353       8.46695388       9.53121716  T        0
O       11.58540875       3.58150677       9.89803762  T        0
O       11.53754129      10.74013244       9.91834250  T        0
O       16.88627496       3.58152560       8.88412985  T        0
O       16.81224040      10.73832795       8.79479970  T        0
O       16.22539771      10.37254543      11.34943283  T        0
O       12.60796160       2.86057740       7.56660184  T        0
O       16.26503681       3.85307532      11.38988215  T        0
O       12.48614397      11.48508740       7.61055106  T        0
O       14.28866063       3.47426625       9.55805304  T        0
O       14.24454312      10.78823223       9.52527726  T        0
O       17.28987482       1.11798328       7.81678571  T        0
O       17.26409274      13.07692561       7.43608836  T        0
O       13.16117727       7.17885446       9.83907870  T        0
O       14.39174352       7.02497944       7.56675500  T        0
Si      12.84919783       2.78626602       9.19033566  T        0
Si      12.80545254      11.51592096       9.21709166  T        0
Si      15.73192863       4.18163018       9.86390558  T        0
Si      15.68775915      10.07969536       9.81269836  T        0
Si      17.58009978       2.74859171       7.62743198  T        0
Si      17.58806453      11.45670648       7.52853472  T        0
Si      14.67079068       7.11415840       9.17647421  T        0
O       16.82821429      11.03373575      -1.60569883  T        0
H       13.50938118       0.51971906       2.07492992  F        0
H       13.50958039      13.75682243       2.07498241  F        0
H       13.51084140      13.75504172       5.44776650  F        0
H       13.50975252       0.52161770       5.44778410  F        0
H       17.29134854       3.14797220       0.53999843  F        0
H       12.76076393       2.97683097      -0.93375646  F        0
H       12.76174962      11.29928001      -0.93393629  F        0
H       16.56020813      13.76127004      -0.00066979  F        0
H        8.59739021      10.07362933       3.76217937  F        0
H        8.59637561       4.20354031       3.76204115  F        0
H       14.60982961       7.13673871      -0.92783774  F        0
H       22.00636260       3.98381786       9.40800429  F        0
H       22.00483182      10.29715766       9.41435165  F        0
H       21.68544240       0.51556882       7.54734209  F        0
H       21.68557806      13.76129914       7.54737584  F        0
H       23.63198861       7.14016697       8.47499567  F        0
H       23.06957714       7.66254159       1.68550051  F        0
H       22.32326696       4.16316078       2.82892343  F        0
H       24.76092223      11.11473374       5.84604825  F        0
H       24.75845825      11.12041654       1.68709931  F        0
H       24.75385446       3.15950316       5.84781029  F        0
H       21.68557806      13.76129914       0.00087584  F        0
H       25.36244212       7.13797332       4.30618001  F        0
H       22.00608000      10.28902905      -1.85963567  F        0
H       13.50938118       0.51971906       9.62142992  F        0
H       13.50958039      13.75682243       9.62148241  F        0
H       11.39369377       3.98884644      10.77146895  F        0
H       11.39439525      10.28733182      10.77116771  F        0
H       15.92688062      10.11457984      12.25007275  F        0
H       15.92754156       4.15729643      12.25107281  F        0
H       16.56036088       0.51548555       7.54573787  F        0
H       16.56020813      13.76127004       7.54583021  F        0
H       12.88235039       7.13795337      10.76981689  F        0
H       16.24044124      10.28985035      -1.86101282  F        0
Fe      17.97544125       9.37885215       4.64853103  T        0
Fe      16.87735708       6.38653762       3.88580115  T        1
O       18.57082877       7.49463847       4.71770242  T        2
O       18.15764834       7.80537480       3.30258365  T        3
