139
Lattice="20.102 0.0 0.0 0.0 19.731 0.0 0.0 0.0 13.253" Properties=species:S:1:pos:R:3:move_mask:L:1:tags:I:1 i=77 E=-3472.0240129048 regions="_JSON [\"Active\"]" n_terminators=34 energy=-927.7935005349607 pbc="F F F"
O       10.24299101       8.50580977       9.50171066  T        0
O        9.86628952      18.86415144       3.94471177  T        0
O       10.04419156      10.47802814       3.74225093  T        0
O        2.26404633      11.38537778       3.95558689  T        0
O        7.93524627       8.49096012      10.75227171  T        0
O       12.08737553      18.62540753       2.50150868  T        0
O       12.48827135      11.36354224       2.90051663  T        0
O        8.23358267       7.00637220       8.50185139  T        0
O       11.91998120      17.54009952       4.97899805  T        0
O       11.35311056      12.20810646       5.16698032  T        0
O        8.16513038       9.66095187       8.30678873  T        0
O       12.14136047      20.20314963       4.62391543  T        0
O       12.31995394       9.69945766       5.00142048  T        0
O        3.58111857      10.74407204       6.11096580  T        0
O        3.10998919       8.88029058       4.12110151  T        0
O       16.98934451      10.66478570       9.17928078  T        0
O       17.03951258      18.94186946       9.14305241  T        0
O        4.92966991      10.84663297       3.80519687  T        0
O        4.94749557      18.49403150       4.15538132  T        0
O        3.59153418      12.12171629       8.48125919  T        0
O       14.29305581      17.08915077      12.05185373  T        0
O       14.31427017      12.51504225      12.07199873  T        0
O        5.84264510      11.07775757       7.44852818  T        0
O        5.85936631      19.21144043       7.59795285  T        0
O       14.28974564       8.57221099       6.51850242  T        0
O        3.81716448       9.43745350       8.32483857  T        0
O        5.67039940      10.16711364       1.26453554  T        0
O        8.27076143      12.51572239       7.82053727  T        0
O        7.79213264      17.40233270       8.08782985  T        0
O       12.32656919       7.07769292       5.38534066  T        0
O        8.29024385      10.92290005       5.68792849  T        0
O        7.91806044      18.68182989       5.81597544  T        0
O       11.88869052       8.66050804       7.46082291  T        0
O        7.47295615      10.94939572       3.14258767  T        0
O        7.33330174      18.55842650       3.18331782  T        0
O       12.85844403       9.10124387      10.00226288  T        0
O        8.19047911       8.63210869       4.22338113  T        0
O       11.34556481      10.86621833       8.81628749  T        0
O       11.85389073      19.06492380       8.71666610  T        0
O        5.77839218      12.68671810       1.99930719  T        0
O        5.46264838      16.94661753       2.02199577  T        0
O       16.04275065      16.99854619       4.52920150  T        0
O       16.14402902      12.54886293       4.57214860  T        0
O       10.02651034      17.17656989       9.55131980  T        0
O        9.89960182      12.88392824       9.85608391  T        0
O       10.11830734       6.75090616       3.88120940  T        0
O        7.69721156      16.72069689      10.70947297  T        0
O        7.20088073      13.36548119      10.22405131  T        0
O       17.74754518      13.18665374       9.43849178  T        0
O       12.39983649       7.07048332       2.68470808  T        0
O       17.84347746      16.44909681       9.41616116  T        0
O        8.71338483      15.00472406       8.81491326  T        0
O       12.01964923       4.78032418       3.99656190  T        0
O       16.45836341      12.52729953       7.23981088  T        0
O       16.53381649      17.06378435       7.21303811  T        0
O       15.09894387      12.58823908       9.49937563  T        0
O       15.18497814      17.00308996       9.49931682  T        0
O       15.79037363      14.78959368       5.94620702  T        0
O        6.04340837       6.93947559       6.98217439  T        0
O       14.01111710      12.78475216       6.23687692  T        0
O       14.07615753      16.83398385       6.38354834  T        0
O        7.46050335       4.64584036       7.43776198  T        0
O       12.19214044      14.98710334       5.77593247  T        0
O        8.45207301       6.57352942       5.88380450  T        0
O       11.36300005      13.30464052       7.68139783  T        0
O       11.58155985      16.75199624       7.48806320  T        0
O        7.59266896       6.18062302       3.34500815  T        0
O       12.53741320      12.90754924      10.07087924  T        0
O       12.60697163      16.77456525       9.96472852  T        0
O       14.23925537      14.81034730      10.75904287  T        0
Si       8.61174586       8.43581442       9.24103676  T        0
Si      11.49721458      18.80585755       4.02680333  T        0
Si      11.57332779      10.89897374       4.18362040  T        0
Si       3.49295175      10.44557780       4.51399260  T        0
Si       4.25658696      10.86932613       7.60956132  T        0
Al       7.53808185      10.93038325       7.35656798  T        0
Si       7.45379733      18.85570892       7.36898890  T        0
Si      12.70631652       8.51687366       6.06751582  T        0
Si       8.48506699      10.22861572       4.19440323  T        0
Si       8.30860075      19.22923532       4.31996388  T        0
Si      11.59137129       9.24882471       8.95838054  T        0
Si       5.94142754      11.15364871       2.56172494  T        0
Si       5.75797843      18.41735877       2.71181784  T        0
Si       8.51222934      16.59646652       9.29854997  T        0
Si       8.47968046      13.37418164       9.19806526  T        0
Si      11.70632855       6.39572863       4.02166219  T        0
Si      16.55839837      12.22353662       8.84260990  T        0
Si      16.63198584      17.37637812       8.82024366  T        0
Si      15.57331300      13.15224829       6.00242608  T        0
Si      15.63469583      16.40820527       6.01142813  T        0
Si       7.53922068       6.28097548       7.21390621  T        0
Al      12.37510648      13.27372107       6.17478980  T        0
Si      12.51855865      16.53534011       6.08970975  T        0
Si       8.58433247       7.04719761       4.33583850  T        0
Si      11.31112657      12.46188443       9.11534363  T        0
Si      11.52952438      17.48004325       8.98931426  T        0
Si      14.05905572      13.19074136      10.59360227  T        0
Si      14.10163241      16.41904959      10.56162891  T        0
O        8.40174487      20.03779804       8.02590547  T        0
O        5.29610664      19.56458636       1.61160743  T        0
O        8.05925140      20.85686411       4.36875695  T        0
H        1.81269882      11.30123319       3.09859993  F        0
H        7.07153747       8.87866318      10.98534327  F        0
H       13.03074803      18.74401529       2.26762503  F        0
H       13.03074804      10.85204106       2.26762503  F        0
H       12.34310542      20.30287261       5.56688324  F        0
H        3.60112680       8.06005012       4.30646574  F        0
H       16.64303307       9.81912404       8.84117322  F        0
H       16.64304187      19.77694965       8.84122497  F        0
H        4.05829635      18.79668859       4.41071282  F        0
H        4.03182275      12.92715973       8.82439874  F        0
H       14.40563884      18.04556895      12.19637069  F        0
H       14.40563885      11.55048737      12.19637067  F        0
H        5.06295559      18.75104696       7.26028496  F        0
H       15.03932990       8.88569483       5.99268334  F        0
H        4.11249823       9.08086468       9.18193973  F        0
H        5.72719027       9.20254625       1.33756862  F        0
H       13.54926599       8.42132791      10.11787432  F        0
H       11.52310955      19.83515307       9.21116341  F        0
H        5.53537813      12.95496052       1.09262639  F        0
H        5.53537813      16.64109584       1.09262638  F        0
H       15.87290964      17.87210703       4.12309272  F        0
H       15.87290964      11.72394929       4.12309273  F        0
H        6.74596320      16.92620537      10.74076342  F        0
H        6.74596321      12.66985099      10.74076342  F        0
H       18.05303808      13.25020103      10.35989921  F        0
H       13.35632228       7.06085325       2.51220488  F        0
H       18.05303809      16.34585533      10.35989921  F        0
H       11.61525895       4.01919395       4.45233654  F        0
H        5.18772305       6.48136951       6.94399129  F        0
H        7.92514400       4.01763560       6.85279547  F        0
H        6.78202892       6.52695113       2.93525138  F        0
H        8.32625906      20.60985804       8.81306681  F        0
H        5.72719026      20.39380587       1.33756863  F        0
H        8.66651872      21.47399316       3.93953912  F        0
Fe      10.18307866      15.10813044       6.99227981  T        0
Fe       9.28110320      12.73078531       5.80468667  T        1
O        8.48826214      14.69821969       6.01699493  T        2
O        9.58887149      14.54658930       5.03202857  T        3
