132
Lattice="20.102 0.0 0.0 0.0 19.731 0.0 0.0 0.0 13.253" Properties=species:S:1:pos:R:3:move_mask:L:1:tags:I:1 i=77 E=-3472.0240129048 regions="_JSON [\"Active\"]" n_terminators=34 energy=-875.2738335211147 pbc="F F F"
O       10.01624176       8.49673333       9.29085575  T        0
O        7.65194021       8.35832442      10.51825843  T        0
O       18.00991156       8.53512998       9.22379728  T        0
O        8.02176055       6.89374386       8.39457298  T        0
O       11.79261976      16.86961479       4.80868077  T        0
O       11.82036346      12.76544208       4.72237354  T        0
O        7.80262635       9.60845715       8.22524557  T        0
O        6.63433729       8.64012468      12.89827379  T        0
O       16.74176763       8.93846838       6.99133220  T        0
O        6.57730222      18.90266068      11.47522494  T        0
O        6.58597296      10.68782783      11.14280518  T        0
O       16.53916199      10.78244950       8.99188364  T        0
O       16.05564910      19.01709413       9.01147148  T        0
O        4.91471129       8.56751286      10.88992186  T        0
O       15.28591770       8.43268860       9.21123391  T        0
O       14.31328583      17.52231506      11.89443538  T        0
O       14.23274997      12.20714769      12.02309808  T        0
O        5.78183232      10.53466217       6.67459242  T        0
O        5.79633123      19.39655108       7.31763449  T        0
O       16.19874289      19.36562048      12.61668927  T        0
O       16.12536737      10.59269369      13.18274076  T        0
O       13.86860662      20.19896664      11.57103018  T        0
O       14.35445008       9.64343642      11.35109081  T        0
O        7.60422864      12.19134917       7.68042835  T        0
O        7.82766301      17.65869822       7.70593704  T        0
O        8.34670503      10.27304916       5.82252023  T        0
O        7.75292788      19.25855869       5.49441585  T        0
O       11.52309749       8.78983615       7.21953553  T        0
O       12.68632828       8.35038943       9.67191192  T        0
O       11.54007876      10.67169754       9.22298915  T        0
O       10.99243936      19.03298384       9.33437815  T        0
O       16.38036390      17.38628488       4.80009631  T        0
O       14.32160577       6.92460399      11.22548637  T        0
O       16.20715413      12.56047458       4.49893492  T        0
O       10.03803340      16.58323038       9.24483610  T        0
O        9.80071289      12.71507190       9.10971891  T        0
O        7.34221790      16.49351364      10.35243270  T        0
O        7.42444598      13.09289793      10.25835418  T        0
O       17.85322265      13.12557834       9.41462613  T        0
O       17.73887605      17.13604815       9.87334732  T        0
O        8.15683916      14.73348998       8.37429935  T        0
O        5.92922156      16.55704577      12.51084804  T        0
O        5.97306126      13.01658485      12.39463212  T        0
O       16.53759297      12.73696823       7.18436519  T        0
O       16.55560484      16.88327817       7.38804987  T        0
O        4.75078577      17.38637996      10.19493237  T        0
O        4.84223426      12.22789384      10.00969307  T        0
O       15.13961416      13.02947092       9.43888444  T        0
O       15.07852766      16.63670805       9.52062684  T        0
O       15.93033837      14.88072427       5.71803485  T        0
O       14.11230135      12.92249215       6.12835850  T        0
O       14.14869239      16.80884217       6.16351301  T        0
O       12.28450541      14.86180821       6.33238891  T        0
O       11.81302269      12.49414928       7.37370580  T        0
O       11.95181994      17.29302362       7.47258080  T        0
O       12.25337638      13.15614161       9.96017206  T        0
O       12.43924662      16.81916214      10.06510604  T        0
O       13.72215552      14.96358474      11.17216573  T        0
Si       8.40424398       8.34206438       9.06590819  T        0
Si       6.42641554       9.05351590      11.32908703  T        0
Si      16.61744874       9.18667431       8.61882810  T        0
Si      14.58735369      19.03194874      12.49120856  T        0
Si      14.59155337      10.72367771      12.55260970  T        0
Si       7.37698629      10.67452964       7.07907610  T        0
Si       7.42438106      19.11772351       7.11566939  T        0
Si      11.47998925       9.07511817       8.84483482  T        0
Si      14.16158727       8.34396241      10.40396281  T        0
Al       8.33780131      16.43424544       8.79384291  T        0
Si       8.27839565      13.18744732       8.77173700  T        0
Si       6.14182637      17.37173218      11.09244800  T        0
Si       6.18149259      12.22738462      10.97255019  T        0
Si      16.48381101      12.41355900       8.79380279  T        0
Si      16.40666722      17.39857680       8.93472589  T        0
Si      15.69816172      13.26984743       5.89490693  T        0
Si      15.74475375      16.47464379       6.01352588  T        0
Si      12.52305832      13.26136113       6.13049148  T        0
Si      12.55901742      16.45937732       6.20110742  T        0
Si      11.36008353      12.25104002       8.91499736  T        0
Si      11.34995376      17.47809865       8.97633399  T        0
Al      13.94410960      13.24131588      10.66364913  T        0
Si      13.95774545      16.50056655      10.68379186  T        0
O       13.92193245      20.74316564      16.06809125  T        0
O        8.21019586      20.37915251       7.86729783  T        0
O       12.10901409      18.66466892      15.90932999  T        0
O       13.83017953      19.11277905      13.93384615  T        0
O       13.58149877      10.17402765      13.73561471  T        0
O       14.64060337      18.19331699      16.38251600  T        0
O        6.03728794      12.09083024      14.87440454  T        0
O        6.05719366      17.15891557      15.13364719  T        0
O        5.42932255      14.71249843      14.31780570  T        0
O        3.65193363      16.73996262      13.99613602  T        0
O        3.67491533      12.69827998      13.81553193  T        0
Si      13.62862585      19.19844612      15.55650997  T        0
Si       5.24787901      16.31499410      13.99499971  T        0
Si       5.26238769      13.14511550      13.88810554  T        0
H       18.28958667       8.42947104      10.15436836  F        0
H        7.84356088       6.72376138       7.45668423  F        0
H       11.77741499      17.76721957       4.45015374  F        0
H       11.77741500      11.82883679       4.45015372  F        0
H        6.01931354       8.91222751      13.59787507  F        0
H       16.07044731       8.91222497       6.28158540  F        0
H        6.59189912      19.77694965      11.03822749  F        0
H       16.64304187      19.77694965       8.84122497  F        0
H        4.52133035       8.52501985      10.00226603  F        0
H        5.06295559      10.84500939       7.26028495  F        0
H        5.06295559      18.75104696       7.26028496  F        0
H       16.97340650      18.78964577      12.75613404  F        0
H       16.97340651      10.80641058      12.75613404  F        0
H       14.16364583      20.51523556      10.69758889  F        0
H        8.50665683      10.58475679       4.91774357  F        0
H        8.50665683      19.01129957       4.91774358  F        0
H       12.20788617       8.97653229       6.55602501  F        0
H       11.52310955      19.83515307       9.21116341  F        0
H       15.87290964      17.87210703       4.12309272  F        0
H       14.56690736       6.77574372      12.16034191  F        0
H       15.87290964      11.72394929       4.12309273  F        0
H       18.05303808      13.25020103      10.35989921  F        0
H       18.05303809      16.34585533      10.35989921  F        0
H        4.26454119      16.60174699       9.87579966  F        0
H        4.26454119      12.99430937       9.87579967  F        0
H       13.65226955      21.53630200      15.57301841  F        0
H        8.32625906      20.60985804       8.81306681  F        0
H       11.86384156      18.29482316      16.78088422  F        0
H       13.51650676      10.58100877      14.61047976  F        0
H       15.58095514      18.39037197      16.50370227  F        0
H        5.82176689      11.72394931      15.75639142  F        0
H        5.82176689      17.87210706      15.75639142  F        0
H        2.98936131      16.34896307      13.39901228  F        0
H        2.98936131      13.24709329      13.39901228  F        0
Fe       8.20423986      14.86608391      11.29984191  T        0
Fe      11.43877707      14.93220367      10.82009093  T        1
O        9.92013351      14.77427538      11.86014231  T        2
