138
Lattice="24.397 0.0 0.0 0.0 24.397 0.0 0.0 0.0 24.397" Properties=species:S:1:pos:R:3:move_mask:L:1:tags:I:1 i=41 E=-6943.8331748197 regions="_JSON [\"Active\"]" n_terminators=30 energy=-942.3297602293999 pbc="F F F"
O       21.89738599      14.76437173      11.94549088  T        0
O       21.58624296      18.27857325      15.69226591  T        0
O       18.40580523      14.95518242       8.63720623  T        0
O       20.73292049       3.31071710      11.97081985  T        0
O       18.23305131       8.75705833      14.94156723  T        0
O       21.76388592      12.18950666      14.88879793  T        0
O       20.99022587      14.79675088       5.90757218  T        0
O       15.50420710      11.99627747       8.56151389  T        0
O       21.98196632      15.62711227      18.69931101  T        0
O       15.54302477       8.59457918      12.03083557  T        0
O       20.95033102       6.04100439      14.98907224  T        0
O       23.64402935      13.93849251      14.14983701  T        0
O       22.64491021       5.42015788       7.74406361  T        0
O       17.62223839      10.43779882       7.75031238  T        0
O       20.03504168      13.01053257       7.69550485  T        0
O       22.56061645      12.73843061      10.28070094  T        0
O       22.50150460      10.41825436      13.03553329  T        0
O       23.44914100      16.56702444      16.62607921  T        0
O       17.62210938       7.76894526      10.43009887  T        0
O       19.98968749       5.44446390      10.40611545  T        0
O       20.07537450       7.84774614      13.16910047  T        0
O       24.68046232      15.33837260      12.25723279  T        0
O       24.33686574      12.05439399      15.77733934  T        0
O       18.05227752      12.37076379       9.37896828  T        0
O       21.98390809      12.24027233       5.97065286  T        0
O       20.90292918      12.31305522      12.30383905  T        0
O       24.48453586      14.68821475      18.30040584  T        0
O       24.20280583      18.55913810      15.02909546  T        0
O       18.11078450       9.44566923      12.33187647  T        0
O       21.61309072       5.83847022      12.37239681  T        0
O       22.68806790      16.63908069      14.02672631  T        0
O       22.48781059       4.39568741      10.27380533  T        0
O       20.09164793      13.80373763      10.25039988  T        0
O       22.64828346      13.99556774      16.63919946  T        0
O       22.57989167      13.88871873       7.87046153  T        0
O       16.58182451      10.27902255      10.27016147  T        0
O       19.97627973      10.42797995      13.95067324  T        0
O       22.65626200       7.69520658      13.95352052  T        0
Al      23.09857463      15.29043537      13.07386148  T        0
Si      23.47340867       4.76184851       9.01273824  T        0
Si      19.13233734      13.51489332       8.97134583  T        0
Si      23.07927814      13.03426416      15.40237553  T        0
Si      21.35649102      13.48238872       6.83878373  T        0
Si      16.92065578      11.25892842       8.99785565  T        0
Si      23.54973316      13.42319511       9.09620011  T        0
Si      21.25758132      11.34629240      13.57384556  T        0
Si      23.13353142      15.27118292      17.57014347  T        0
Si      16.95046692       9.01773570      11.26577341  T        0
Si      21.32883140       6.86623363      13.61087049  T        0
Si      21.34042513      13.45803087      11.22085645  T        0
Al      23.58970072       9.07007638      13.57325394  T        0
Si      22.99776782      17.49899280      15.33788415  T        0
Si      21.20649101       4.73257593      11.25824798  T        0
Si      19.10113896       9.08838507      13.58017249  T        0
O       24.71612731       9.60808150      14.77980934  T        0
O       27.18912828      12.17112959       9.43289287  T        0
O       26.65771877       8.67607233       5.55613621  T        0
O       24.24181782       3.35387399       8.60334017  T        0
O       27.94716962       9.96641209      18.71682949  T        0
O       27.82681087      18.37691350       9.40964170  T        0
O       26.97557732       9.67248345      12.20381340  T        0
O       24.38666908      14.72008753       9.65252872  T        0
O       30.75290027       9.54535849      15.56853128  T        0
O       27.18690044       6.00931705       8.77388890  T        0
O       24.63207941      21.08652345      15.87070902  T        0
O       27.98980552      21.03362831      12.35206985  T        0
O       31.03975572      15.71203509       9.92701080  T        0
O       26.35714074      11.63183726      14.08293221  T        0
O       26.63802846      14.21211020      11.13780589  T        0
O       25.51186980       7.91164753       7.88812758  T        0
O       28.85260518      18.97229507      13.95238290  T        0
O       28.70977571      16.46660657      11.07930864  T        0
O       25.43501957      10.16706840       9.97754568  T        0
O       26.18307300      18.94511957      16.62479359  T        0
O       29.02310626      11.27454152      16.57874926  T        0
O       27.98748310      12.13190771      12.02863559  T        0
O       24.19972316       9.53025980       6.20196476  T        0
O       24.55065319       5.93259738       9.40883978  T        0
O       30.39915861      14.85154754      12.39000883  T        0
O       27.19506668      18.45206811      12.04681584  T        0
O       24.38213634       9.03905545      11.97756867  T        0
O       24.60047030      12.27093231       8.62326752  T        0
O       30.66797620      12.12111176      14.59224640  T        0
O       27.34372580      12.53364071      18.14943061  T        0
O       26.44657834      10.59819679      16.56614386  T        0
O       29.07001828      13.89723635      10.33015446  T        0
O       26.26407507      10.47491346       7.54379921  T        0
O       26.10861542      16.67292129      10.37835361  T        0
O       28.76126888      10.47389937      14.00726838  T        0
O       26.22485691       7.71538830      10.49024788  T        0
O       26.31754945      19.97613557      14.11469883  T        0
Si      25.43724954      10.92401944      15.33176676  T        0
Si      27.71764919      13.06076294      10.70644287  T        0
Si      25.67095071       9.12300221       6.79850674  T        0
Si      27.48003894      17.49533788      10.75793947  T        0
Si      27.52254571      10.95899056      13.06108933  T        0
Si      25.41742550      15.26154094      10.80666580  T        0
Si      25.83812776       6.88976775       9.12208481  T        0
Si      27.58272813      19.62517743      13.12284719  T        0
Si      29.80319900      15.25811932      10.91814763  T        0
Si      25.80564127       9.12213882      11.19522020  T        0
Si      25.33409908      19.65873368      15.40215207  T        0
Si      29.81763940      10.86219250      15.20928599  T        0
Si      25.89695176      11.31138845       8.89828987  T        0
Si      27.69944524      11.06732432      17.51455187  T        0
H       21.53675922      18.82464154      16.48557585  F        0
H       17.77044825      15.05832767       7.91114389  F        0
H       20.10951519       3.23923103      12.72546793  F        0
H       17.77044795       7.91114248      15.05833030  F        0
H       20.10952727      15.05833719       5.57209478  F        0
H       15.43760507      12.72548405       7.91113339  F        0
H       21.53675926      16.48557294      18.82464504  F        0
H       15.43760512       7.91113194      12.72548646  F        0
H       20.10952727       5.57209364      15.05833987  F        0
H       21.84183657       5.02705817       7.37003090  F        0
H       17.22544603       9.64342904       7.37003541  F        0
H       17.22544607       7.37003419       9.64343075  F        0
H       19.56839356       5.02707813       9.64345142  F        0
H       21.54217341      11.69569933       5.29990500  F        0
H       24.89948212      15.05286123      19.09678599  F        0
H       27.25697428       7.91116076       5.57209299  F        0
H       24.92409737       3.23921078       7.91116324  F        0
H       28.68420627       9.33839650      18.82464325  F        0
H       28.68420627      18.82464007       9.33839816  F        0
H       31.02328530       9.33840603      16.48559414  F        0
H       27.25697431       5.57209217       7.91116218  F        0
H       23.86979091      21.15749759      16.48550707  F        0
H       28.68421834      21.15750267      11.67127009  F        0
H       31.02328560      16.48559123       9.33840773  F        0
H       29.22533999      19.36965558      14.75328661  F        0
H       26.95189696      19.36967554      17.02670712  F        0
H       23.89425140       9.34387249       5.29995205  F        0
H       31.29548389      15.05290867      12.70105939  F        0
H       31.29548387      12.70105727      15.05291128  F        0
H       27.25156012      12.70103436      19.09683303  F        0
Fe      23.58873674      11.00608176      11.39365161  T        1
Fe      25.27169008      13.36788725      13.03937011  T        2
O       24.97799646      12.18145993      11.66466066  T        3
