148
Lattice="24.397 0.0 0.0 0.0 24.397 0.0 0.0 0.0 24.397" Properties=species:S:1:pos:R:3:move_mask:L:1:tags:I:1 i=41 E=-6943.8331748197 regions="_JSON [\"Active\"]" n_terminators=26 energy=-1036.7290700967371 pbc="F F F"
O        9.64308300      14.65146313      -0.12269729  T        0
O       12.31566856       9.54600528       2.49775927  T        0
O       14.88490007      21.08172348       6.20158477  T        0
O       12.17521858      15.65588086       8.86408719  T        0
O        9.72095304      18.63316017       3.41855760  T        0
O       15.63445769       9.45899280       6.17144258  T        0
O       18.50093705      14.89287843       8.69599732  T        0
O       21.02196932      12.06917904       3.41154100  T        0
O       20.92126380      15.71255185       0.01660437  T        0
O       18.40019653      20.84349763       2.64502649  T        0
O       14.64639595       9.60561165       0.11063200  T        0
O        9.55237511      12.23777750       2.57591377  T        0
O       15.69073182      12.22840673       8.88077510  T        0
O       18.29058025       9.46178454       3.48149240  T        0
O        9.45390492      15.61289103       6.20493552  T        0
O       14.81601161      18.27410451       8.90691961  T        0
O       11.96033106      20.87980375       3.40540999  T        0
O       15.86531380      20.86966271      -0.20296102  T        0
O       21.02851781      18.25128327       2.60344768  T        0
O       11.56175238      13.84782907       1.82190551  T        0
O       13.98308054      11.57947719       1.87315315  T        0
O       19.15378434      16.49192888       1.88938285  T        0
O       16.56422116      19.02103691       1.94889367  T        0
O       10.29628017      10.27473779       0.90354239  T        0
O       11.21990343      16.65704111       4.51550591  T        0
O       13.95119544      19.33568933       4.42991823  T        0
O       13.98271269      16.52320774       7.03979330  T        0
O       19.33303081      13.77177137       4.60428703  T        0
O       16.56250483      11.30955993       4.42685783  T        0
O       16.57041362      13.98584248       7.02345413  T        0
O       20.36944461      20.22536738       0.90745781  T        0
O       12.02786710      11.99722882       3.59702312  T        0
O       18.54178064      18.37428037       3.64602857  T        0
O       12.16860211       8.64935559      -0.01231453  T        0
O        8.67389001      12.14763838       0.03300809  T        0
O       12.06920116      14.86936111       6.27900211  T        0
O       12.28370747      18.25983432       2.68795890  T        0
O       15.58620522      18.46900482       6.31956277  T        0
O       18.34889767      15.85662328       6.13509693  T        0
O       18.42276470      12.09870170       2.75513549  T        0
O       14.88295121      12.06914609       6.29767873  T        0
O       18.39561129      21.72454352       0.09669358  T        0
O       21.85429905      18.21721851       0.05176676  T        0
O       10.45827376      16.53741151       1.94120947  T        0
O       14.04088650      10.44274055       4.33755125  T        0
O       20.04854775      14.00031093       1.90926167  T        0
O       16.58116583      20.02576730       4.42765664  T        0
O       16.46453770      10.48073878       1.89093221  T        0
O       10.48593927      14.05933500       4.30674798  T        0
O       13.91076590      20.04539893       1.80719893  T        0
O       20.34281223      16.42007292       4.32988092  T        0
O       20.10538062      22.70420183       1.95575162  T        0
O        7.78854239      10.41270860       1.92609015  T        0
O       16.54076627      16.51822992       7.88259962  T        0
O       13.99924832      13.98900879       7.89319279  T        0
O       22.90221202      19.94873483       1.81479282  T        0
O       10.46949937       7.73983868       1.87560054  T        0
Al      10.88153036      15.25104657       0.88655771  T        0
Si      13.06880085      10.85004350       3.11280699  T        0
Si      19.65190873      15.25747104       0.94735075  T        0
Si      17.50693712      19.55226220       3.14452221  T        0
Si      15.22144837      10.88313372       0.94063211  T        0
Si      10.86973537      13.04515341       3.09517159  T        0
Al      15.33945176      19.64992025       0.88863623  T        0
Si      19.73577564      17.39731131       3.13303065  T        0
Si       9.06133272      11.26486286       1.34003639  T        0
Si      10.82053470      15.29729503       5.33326053  T        0
Si      13.06470670      19.70481062       3.11305633  T        0
Si      15.24049481      17.45192895       7.53798071  T        0
Si      17.46918464      10.84718080       3.15001196  T        0
Si      15.30141313      13.07587817       7.52189998  T        0
Si      21.53274263      19.17107441       1.34398701  T        0
Si      11.28519179       9.04366023       1.30822879  T        0
Si      15.29306337      10.83140323       5.33213940  T        0
Si      19.71139110      13.03275506       3.17256045  T        0
Si      17.51185012      15.27029844       7.43401660  T        0
Si      15.26957931      19.72440622       5.33603803  T        0
Si      10.86937685      17.49189535       3.15532739  T        0
Si      13.05612186      15.27110167       7.52383606  T        0
Si      19.30911244      21.37516374       1.39673941  T        0
O       14.76831260      12.18141715      -2.62117729  T        0
O       15.79191505      18.45338604      -2.47689619  T        0
O       12.09700762      14.68306670      -2.47927938  T        0
O       18.39055859      15.68081829      -2.59015373  T        0
O       14.01644871      13.95390087      -0.76309618  T        0
O       16.52677173      16.45554505      -0.86248576  T        0
O       13.03321221      10.25718373      -1.93279277  T        0
O       10.10677019      12.88389297      -2.07177203  T        0
O       17.63804174      20.43113100      -2.12302899  T        0
O       20.31471298      17.44551902      -1.96107709  T        0
O       12.36823182      15.79335239       0.01203009  T        0
O       15.65036252      12.08448925      -0.06912254  T        0
O       18.42386117      14.80239477      -0.03754111  T        0
O       14.69552411      18.16533528      -0.01552630  T        0
O       12.24189219      12.22680134      -3.50077266  T        0
O       18.26271665      18.21805309      -3.44706072  T        0
O       16.55879444      13.94815102      -1.73742268  T        0
O       14.06904142      10.46018796      -4.44607502  T        0
O       22.78881829      16.40255427      -1.72548161  T        0
O       16.51186317      19.96440765      -4.52065226  T        0
O        7.63340027      13.94454066      -1.64836310  T        0
O       14.09150300      16.41192918      -1.92774805  T        0
O       10.49979978      14.03056072      -4.48485417  T        0
O       16.83871179      22.96772642      -1.58450346  T        0
O       20.01261239      16.44501029      -4.47930946  T        0
O       14.06040959       7.76178346      -1.73136011  T        0
Si      15.28970604      13.03468023      -1.34370681  T        0
Si      15.29322207      17.39763886      -1.34806100  T        0
Si      13.11056871      15.24826319      -1.34855058  T        0
Si      17.50203831      15.22575253      -1.30207993  T        0
Si      13.46881721       9.05455086      -0.91145248  T        0
Si      11.21409557      13.44454407      -3.12795058  T        0
Si      17.15677767      21.48499623      -0.93897508  T        0
Si      19.26171164      16.97090257      -3.11733716  T        0
Si       9.02093033      13.42201264      -0.94486487  T        0
Si      13.50318917      11.26301809      -3.13675577  T        0
Si      21.47362093      16.95552843      -0.90349901  T        0
Si      17.06617567      19.28438790      -3.12719391  T        0
H       14.01033133      21.15748981       6.62630180  F        0
H       11.67124922      16.48560174       8.95913012  F        0
H        9.33839640      18.82463975       4.28720704  F        0
H       16.48559112       9.33840607       6.62628668  F        0
H       18.82464116      14.01032609       8.95915608  F        0
H       21.15750258      11.67126816       4.28721909  F        0
H       16.48560162      11.67124930       8.95913012  F        0
H       18.82463962       9.33839646       4.28720704  F        0
H        9.33840600      16.48559124       6.62628668  F        0
H       14.01032599      18.82464129       8.95915608  F        0
H       11.67126808      21.15750273       4.28721909  F        0
H       19.36965547      14.75328399       4.82834093  F        0
H       19.09684364      15.44301376       5.59651532  F        0
H       19.78593016      15.76396550       4.85484922  F        0
H       20.83112530      23.15241223       1.48839475  F        0
H        7.34352333       9.66479174       1.48837704  F        0
H       23.15241204      20.83112542       1.48839475  F        0
H        9.66479163       7.34352337       1.48837704  F        0
H       13.68673308       9.66480596      -4.85513656  F        0
H       23.15240156      16.80916493      -2.53384338  F        0
H       16.80913871      20.83112323      -4.85512183  F        0
H        7.34352146      13.68671965      -2.53387758  F        0
H        9.66480591      13.68673318      -4.85513656  F        0
H       16.80916481      23.15240172      -2.53384338  F        0
H       20.83112308      16.80913882      -4.85512183  F        0
H       13.68671953       7.34352150      -2.53387758  F        0
Fe      13.63896318      13.83417309       1.51121103  T        0
Fe      13.65262123      17.07873588       1.39102072  T        1
O       13.86225786      15.56316129       2.71296983  T        2
O       14.92466025      15.34524108       1.70608230  T        3
