135
Lattice="24.397 0.0 0.0 0.0 24.397 0.0 0.0 0.0 24.397" Properties=species:S:1:pos:R:3:move_mask:L:1:tags:I:1 i=41 E=-6943.8331748197 regions="_JSON [\"Active\"]" n_terminators=32 energy=-907.6149645078603 pbc="F F F"
O       21.58778949       2.49996117      -0.10414069  T        0
O       12.06351759       9.78254290       2.51580856  T        0
O       21.84831684       6.08119887       3.41964531  T        0
O       15.63224726       9.74920952       6.28705806  T        0
O       20.91863451      12.39172781       3.63973099  T        0
O       15.55733269       6.29594021       9.74087825  T        0
O       14.71135745       9.78884007      -0.14627926  T        0
O       21.93582763      -0.20582769       2.56804581  T        0
O       18.35688674       9.63695498       3.42204754  T        0
O       21.95388535       3.43056914       6.32318421  T        0
O       18.42949152       3.31151708       9.67844927  T        0
O       23.61016471       1.73779959       1.90858516  T        0
O       13.99023549      11.48250762       1.79939957  T        0
O       22.67418486       5.48304185       7.93192881  T        0
O       22.69380297       8.03872991       5.36897037  T        0
O       17.66696911      10.50474240       7.90776414  T        0
O       20.15902645      10.51329684       5.31153022  T        0
O       10.24247125      10.34922350       0.57190240  T        0
O       23.56900401       4.17288752       4.33098199  T        0
O       18.89699317      14.12441794       4.26210533  T        0
O       16.51805728      11.33323144       4.33855692  T        0
O       17.66562396       7.88571599      10.53299875  T        0
O       19.98375089       5.35953373      10.65449006  T        0
O       12.16534253      12.26182557       3.64601608  T        0
O       20.86083027       5.88811250       6.09091383  T        0
O       18.13309570       8.85912388       6.00239442  T        0
O       22.02323931      12.30046462       6.12826398  T        0
O       12.22807437       8.74141031       0.03125214  T        0
O       20.91716600      -0.07809224       0.02665737  T        0
O       24.46042043       2.39355076       6.16483666  T        0
O       24.41845441       6.11833167       2.67830249  T        0
O       18.42043228      12.18051843       2.63465615  T        0
O       14.68464917      12.29573180       6.09411825  T        0
O       18.11907620       5.88860601       8.91252796  T        0
O       22.56387399       4.37685796       1.76913495  T        0
O       13.97810581      10.51056368       4.29019011  T        0
O       20.00528153       7.99268475       4.30515996  T        0
O       16.62882810       7.96878886       8.03505005  T        0
O       22.69951033      10.49807488       4.34724817  T        0
O       20.21227251      14.06576722       1.81267128  T        0
O       16.48868552      10.51389589       1.75342220  T        0
O       22.64794820       1.65846077       4.40690442  T        0
O       20.22626419       4.33232242       8.14673666  T        0
O       10.38473610       7.89682169       1.85280589  T        0
Al      23.05785619       2.92500643       0.76664011  T        0
Si      13.02311660      11.00101251       3.04378014  T        0
Al      21.40496534       6.99137675       4.89511050  T        0
Si      16.97369783       9.25136795       7.09454331  T        0
Si      21.46940942      11.43557818       4.85354699  T        0
Si      15.21285972      11.00953562       0.81844509  T        0
Si      23.15783895       0.76466851       3.10544118  T        0
Si      19.19447217       9.29786120       4.87687797  T        0
Si      21.41661187       4.77904951       7.10952333  T        0
Si      23.64777786       9.22418153       4.83804983  T        0
Si      23.14694719       2.90970310       5.32285045  T        0
Si      17.39679827      10.98213076       3.01958775  T        0
Si      19.20069433       4.73121164       9.34468518  T        0
Si      11.20687190       9.18469102       1.24001993  T        0
Si      15.19879411      10.97489197       5.27386640  T        0
Si      19.61769200      13.21945159       3.08461508  T        0
Si      23.18890150       5.15059845       3.10260815  T        0
Si      16.99468315       6.99472477       9.31857417  T        0
O       24.54052601       8.68215197       3.54976734  T        0
O       28.02392414       8.84370515       0.18072120  T        0
O       28.89247090       6.75520619       1.74376454  T        0
O       26.21918914       6.71200099       4.40025081  T        0
O       24.64704799       9.85823697       5.98595878  T        0
O       26.37471813       7.74142928       1.87034981  T        0
Si      27.63739715       7.39552944       0.88149719  T        0
Si      25.39922578       7.35236636       3.11831176  T        0
O       27.98147024       5.95762685      -2.80323782  T        0
O       24.63125796       2.38162502      -2.68831355  T        0
O       26.23663861       1.72928598      -0.61230277  T        0
O       28.94245253       4.41134708      -0.74886914  T        0
O       27.22594382       6.27790787      -0.22910395  T        0
O       24.40729612      -0.12118415      -3.67066522  T        0
O       26.42330477       4.16418427      -1.77217834  T        0
Si      27.62901143       5.18508597      -1.38389888  T        0
Si      25.38288981       2.95926583      -1.33326565  T        0
O       18.20293730       2.53717171      -3.47728515  T        0
O       21.04031178       2.64940162      -6.40666274  T        0
O       20.11453889       0.94896392      -4.60559458  T        0
O       12.76437339      10.35550340      -1.95522717  T        0
O       22.55360548       0.81293589      -1.93788687  T        0
O       24.32349418       3.49528501      -0.26510805  T        0
O       15.83720664      12.27456156      -0.02268426  T        0
O       18.23560381      -0.23020543      -3.41803553  T        0
O       22.04164717       0.09793958      -6.32445674  T        0
O       19.93123956       1.35482461      -1.93973313  T        0
O       22.68555823       1.74382808      -4.43671261  T        0
O       14.04926584       7.90330932      -1.81850909  T        0
Si      19.11529536       1.16198751      -3.33476472  T        0
Si      21.45451305       1.35883227      -5.44597546  T        0
Si      13.42756618       9.18541592      -0.99483392  T        0
Si      23.57856010       1.21024695      -3.15697112  T        0
Si      21.25862023       1.17738518      -0.98091408  T        0
O       22.51816963      -1.99470959       0.57103292  T        0
O       24.36496171      -0.16572798       3.74764138  T        0
O       20.09794585      -1.86118903       1.91508612  T        0
Si      21.36996058      -1.02959794       1.27255919  T        0
H       15.43757911       5.57209275      10.38640946  F        0
H       17.77043311       3.23924387      10.38640412  F        0
H       23.12591797       5.02704618       8.65412107  F        0
H       17.22544067      10.92750153       8.65411313  F        0
H        9.64346070      10.92752665       1.07209470  F        0
H       19.36965547      14.75328399       4.82834093  F        0
H       17.22544070       8.65411150      10.92750362  F        0
H       20.85245744       5.02708867      10.92752556  F        0
H       11.39908935      12.70105073       3.24464026  F        0
H       21.54216027      12.99764967       6.60187561  F        0
H       24.89951425       2.85451703       6.89840128  F        0
H       15.05290853      12.70105704       6.89848521  F        0
H       19.78591980      14.73191782       1.24430354  F        0
H        9.66479163       7.34352337       1.48837704  F        0
H       28.68412771       8.95914275      -0.52719976  F        0
H       29.22534432       7.17131743       2.55494170  F        0
H       26.95194123       7.17131746       4.82834527  F        0
H       25.19630608       9.34383456       6.60185911  F        0
H       28.68420928       6.62630035      -2.86021198  F        0
H       26.95192867       1.27083937      -1.07240246  F        0
H       29.22533941       3.54426653      -1.07238230  F        0
H       25.19622735      -0.50276655      -3.24494277  F        0
H       17.77043356       2.85994955      -4.28747201  F        0
H       20.10952426       2.85994950      -6.62656333  F        0
H       13.27046627      10.92751241      -2.55519789  F        0
H       15.44299305      12.70103244      -0.79954860  F        0
H       17.49833355      -0.50278089      -2.85477948  F        0
H       21.54221652      -0.50278066      -6.89866328  F        0
H       13.68671953       7.34352150      -2.53387758  F        0
H       23.12589418      -2.55519498       1.07214050  F        0
H       24.89950013      -0.79949361       3.24468082  F        0
H       19.54187317      -2.53384464       1.48839915  F        0
Fe      20.89428375       5.46728043       1.63466520  T        0
Fe      19.09767993       7.90517813       2.44828500  T        1
O       19.45596078       6.55817436       1.30179473  T        2
