136
Lattice="20.102 0.0 0.0 0.0 19.731 0.0 0.0 0.0 13.253" Properties=species:S:1:pos:R:3:move_mask:L:1:tags:I:1 i=77 E=-3472.0240129048 regions="_JSON [\"Active\"]" n_terminators=32 energy=-921.5588377284341 pbc="F F F"
O       10.02085937       8.51086015       9.29899686  T        0
O        9.96239430      18.92953088       3.91068420  T        0
O       10.05028925      10.61794142       3.56582356  T        0
O        7.58467878       8.66993384      10.39345500  T        0
O       12.11236220      18.54112710       2.50356545  T        0
O       12.53426976      11.45708026       2.84129615  T        0
O        7.96475129       6.98000915       8.39088086  T        0
O       11.88742794      17.43797990       4.96912202  T        0
O       11.41675136      12.31738668       5.06594462  T        0
O        8.00955467       9.65094289       7.94330362  T        0
O       12.31617310      20.09621098       4.62005261  T        0
O       12.19883206       9.72457683       4.87598659  T        0
O        3.26847406      11.13736410       6.04061611  T        0
O        6.39888728       8.64650183      12.73616233  T        0
O        4.24154509      19.18379886       5.83397217  T        0
O        6.91511365      18.92383262      10.72665165  T        0
O        6.15562195      10.82810197      11.13459643  T        0
O       17.09716796      10.63619992       9.10918554  T        0
O       17.09773944      18.95452194       9.09146679  T        0
O        4.89623283       8.59586870      10.47498948  T        0
O        3.75224531      12.50970508       8.18905262  T        0
O        4.24979700      17.50258132       7.97850740  T        0
O       14.41861787      17.07887421      12.08031208  T        0
O       14.35224243      12.51601359      12.08719685  T        0
O        5.80778480      11.32983264       6.93022107  T        0
O        6.19068147      19.27793598       7.56591667  T        0
O       14.23117353       8.90685076       6.52959163  T        0
O        4.08481563       9.84218373       8.27792362  T        0
O        3.81012170      20.18534574       8.31292154  T        0
O        8.38617374      12.50833561       7.76372064  T        0
O        8.00917132      17.37980202       8.06562486  T        0
O       12.57304026       7.13584458       5.37232135  T        0
O        8.38868592      11.18944080       5.55815575  T        0
O        8.18189766      18.77763284       5.85305965  T        0
O       11.78694123       8.83960391       7.36060551  T        0
O        7.49779123      11.10238414       2.99450437  T        0
O        2.27210170       8.51047208       9.73480301  T        0
O        7.51126643      18.23785198       3.29487416  T        0
O       12.60980558       8.23701834       9.90077836  T        0
O        8.16491256       8.83541734       4.36429292  T        0
O       11.62633901      10.66476266       9.29548847  T        0
O       11.99221589      19.04491432       9.52761343  T        0
O        3.89446532       7.12351721       8.37889659  T        0
O       16.13698271      17.02526697       4.53014164  T        0
O       16.26231241      12.50157618       4.56666796  T        0
O       10.12256103      17.05239328       9.63589056  T        0
O       10.05379259      12.77823443       9.79554499  T        0
O        7.64281607      16.49958980      10.57794660  T        0
O        7.43113499      12.97754836      10.19364041  T        0
O       17.85730803      13.14454869       9.41397160  T        0
O       17.87413035      16.45884643       9.41058474  T        0
O        8.73626443      14.90777816       8.82248905  T        0
O        6.30832090      17.31778708      12.81549540  T        0
O        6.51827488      13.06894539      12.61871946  T        0
O       16.51975247      12.53913989       7.22896874  T        0
O       16.53769454      17.05429408       7.20927761  T        0
O        4.98944354      16.99340899      10.51084658  T        0
O        4.79779895      13.04575821      10.56745519  T        0
O       15.21801603      12.52006207       9.54228971  T        0
O       15.22671746      17.04315460       9.51335478  T        0
O       15.91673193      14.79044812       5.90190546  T        0
O       14.10300741      12.81907522       6.14945829  T        0
O       14.09586118      16.75836767       6.28728048  T        0
O       12.10779659      14.99550374       6.01290493  T        0
O       11.50813868      12.73228953       7.60182488  T        0
O       11.80212517      17.17143962       7.57079356  T        0
O        2.41668119      17.31984306       9.75981433  T        0
O        2.17523929      13.45265011      10.18200414  T        0
O       12.68307855      13.00250062      10.00646651  T        0
O       12.68199152      16.59350219      10.03861262  T        0
O        3.86524361      15.07175213       9.06502029  T        0
O       14.47826849      14.79617118      10.79487345  T        0
Si       8.39544375       8.47140356       8.97247061  T        0
Si      11.57006854      18.73437197       4.04196562  T        0
Si      11.56730623      11.00346096       4.08100189  T        0
Si       6.25319307       9.18969102      11.18836714  T        0
Si       4.25896648      11.18525419       7.35950937  T        0
Si       4.58640517      19.01809900       7.43276869  T        0
Al       7.48262916      11.06302669       7.13001994  T        0
Si       7.75659323      18.86244509       7.41382990  T        0
Si      12.68708577       8.65128652       6.01931146  T        0
Si       8.50877369      10.42755141       4.10168788  T        0
Si       8.40266459      19.19552480       4.28859793  T        0
Si      11.52156095       9.06135287       8.97333297  T        0
Si       3.83528266       8.53315260       9.21949534  T        0
Si       8.63844878      16.48210095       9.27475747  T        0
Si       8.63776848      13.32429761       9.18300466  T        0
Si       6.42289320      17.41138769      11.17580318  T        0
Si       6.20873890      12.45290208      11.12468871  T        0
Si      16.65414367      12.20225545       8.81585420  T        0
Si      16.66210759      17.38664621       8.80470432  T        0
Si      15.67317834      13.16661407       5.96418570  T        0
Si      15.66170121      16.40277327       5.98124962  T        0
Al      12.47550480      13.32349897       6.18680487  T        0
Si      12.47475910      16.55288225       6.20766071  T        0
Si      11.49171265      12.28258182       9.19198661  T        0
Si      11.63204078      17.47699494       9.16191587  T        0
Si       3.87302337      16.68594879       9.34618245  T        0
Si       3.66473093      13.50061742       9.47653380  T        0
Si      14.19210766      13.20610527      10.60055691  T        0
Si      14.20071354      16.39520105      10.59757523  T        0
O        8.70308532      20.01768212       8.13766681  T        0
O        7.99778322      20.78136111       4.06923027  T        0
H       13.03074803      18.74401529       2.26762503  F        0
H       13.03074804      10.85204106       2.26762503  F        0
H        7.84356088       6.72376138       7.45668423  F        0
H       12.34310542      20.30287261       5.56688324  F        0
H        3.46536401      10.58100877       5.26900439  F        0
H        6.01931354       8.91222751      13.59787507  F        0
H        3.46536401      19.01504758       5.26900440  F        0
H        6.59189912      19.77694965      11.03822749  F        0
H       16.64303307       9.81912404       8.84117322  F        0
H       16.64304187      19.77694965       8.84122497  F        0
H       14.40563884      18.04556895      12.19637069  F        0
H       14.40563885      11.55048737      12.19637067  F        0
H       15.03932990       8.88569483       5.99268334  F        0
H        4.11250309      20.51523557       9.18186357  F        0
H       11.89104871       6.82542533       4.74838322  F        0
H        6.55301950      11.30937632       3.13509397  F        0
H        1.92726146       8.79770260      10.59110356  F        0
H        6.55301950      18.28668004       3.13509397  F        0
H       13.54926599       8.42132791      10.11787432  F        0
H        8.66651872       8.12235896       3.93953912  F        0
H       11.52310955      19.83515307       9.21116341  F        0
H        4.51576461       6.77574371       7.71911054  F        0
H       15.87290964      17.87210703       4.12309272  F        0
H       15.87290964      11.72394929       4.12309273  F        0
H       18.05303808      13.25020103      10.35989921  F        0
H       18.05303809      16.34585533      10.35989921  F        0
H        5.86807409      16.61444052      13.33116226  F        0
H        5.86807409      12.98161584      13.33116226  F        0
H        1.73086688      16.98843832      10.35624453  F        0
H        1.73086689      12.60761804      10.35624453  F        0
H        8.32625906      20.60985804       8.81306681  F        0
H        8.66651872      21.47399316       3.93953912  F        0
Fe       9.87409070      12.33984699       6.40688505  T        1
