148
Lattice="19.123 0.0 0.0 0.0 14.277 0.0 0.0 0.0 7.5465" Properties=species:S:1:pos:R:3:move_mask:L:1:tags:I:1 i=128 E=-2603.9155142701 regions="_JSON [\"Active\"]" n_terminators=30 energy=-1024.573148805341 pbc="F F F"
O       15.90632007       8.42019045       5.51343421  T        0
O       13.31775688       1.57799354       2.07431209  T        0
O       15.38093233       5.86688400       5.69435106  T        0
O       15.83315731       5.93960500       1.80781556  T        0
O       12.81819324       1.09518404       5.84653575  T        0
O       15.96958738       8.47726700       1.81711358  T        0
O        7.37583030       3.19181288       2.58925251  T        0
O       11.71045642       3.65848840       2.37002499  T        0
O       17.08827872       3.51406513       6.21559383  T        0
O       16.95467990       3.54279678       1.23204474  T        0
O       11.68746793       3.45064410       5.07573571  T        0
O        7.37845418       3.74819624       5.27401246  T        0
O       12.40950694       2.93062505      -0.15341751  T        0
O       15.83043777       3.85184622       3.57506459  T        0
O       14.25921773       3.89589055       1.47996190  T        0
O       14.29663160       3.18013592       5.51019706  T        0
O       11.36530783       8.42234294       3.54298227  T        0
O       17.31958556       1.27012531      -0.15106189  T        0
O       11.75069823       5.84752031       3.84970723  T        0
O        7.15511411       5.73633968       3.36656163  T        0
O        9.49143619       4.33946316       3.77691509  T        0
O       13.37181894       7.55868174       5.14839129  T        0
O       15.45605543      -0.06006811       1.23768981  T        0
O       15.24660024       0.00157494       6.39259213  T        0
O       13.57894987       7.27782013       2.47637395  T        0
O       14.45739316       7.29795798      -0.06322488  T        0
O       14.42796209       0.20827594       3.92515528  T        0
Si      12.87090606       3.01414223       1.40352870  T        0
Al      15.76527686       4.23456624       5.36668268  T        0
Si      15.76102320       4.33467426       1.99450422  T        0
Si      12.80542285       2.73445004       6.05549113  T        0
Si      17.59839644       2.87966696      -0.13954087  T        0
Si      11.13781382       4.32820939       3.77471077  T        0
Si       7.82682228       4.27267891       3.76204880  T        0
Si      14.77330096       7.31934004       5.99926974  T        0
Al      14.00729552      -0.10124687       2.17706736  T        0
Si      13.91324487      -0.08332027       5.47012812  T        0
Si      14.90943262       7.26503612       1.51571426  T        0
Si      12.54136645       7.28581877       3.76368920  T        0
Si      16.35860430      -0.07127249      -0.10131797  T        0
O       19.20456631       3.12393656       7.93546375  T        0
O       19.19476644       3.25317985      -0.26357726  T        0
O       19.20597462      -3.23843094       7.85984931  T        0
O       19.21003042      -3.35785056      -0.14085503  T        0
O       13.08683073       1.21561555       9.46297724  T        0
O       15.51809995       5.88921069       9.49675334  T        0
O       15.58018080       8.46433712       9.90752786  T        0
O       11.55347930       3.29392817      10.10160544  T        0
O       16.77814689       3.60054775       8.85295223  T        0
O       12.58181785       3.09075676       7.63074654  T        0
O       16.32280081       4.07637349      11.36492593  T        0
O       14.22084219       3.61526788       9.70606224  T        0
O       17.25723352       1.25856505       7.64110824  T        0
O       15.39612565      -0.09676398       9.01023603  T        0
O       13.15066611       7.17620659       9.83347601  T        0
O       14.44563961       7.50836903       7.60272342  T        0
O       14.58591584       0.02531545      11.41699681  T        0
Si      12.87747079       2.82658646       9.24133729  T        0
Si      15.70725634       4.30050226       9.85592545  T        0
Si      17.60160243       2.87978260       7.61932183  T        0
Si      14.02064277      -0.06886401       9.87732716  T        0
Si      14.68258354       7.26796862       9.20392748  T        0
Si      16.29675353      -0.05296253       7.65474412  T        0
O       15.66019202       8.42463740      -2.28276143  T        0
O       15.50573393       5.85843288      -2.09820445  T        0
O       13.09219431       1.15626210      -2.00419217  T        0
O       16.80954289       3.61530784      -1.36615296  T        0
O       11.58672867       3.19235843      -2.71038851  T        0
O       16.24057186       3.88061199      -3.83482701  T        0
O       14.19987378       3.59034913      -2.04965813  T        0
O       13.16382103       7.23296834      -2.30996790  T        0
O       15.40109869      -0.08454932      -1.43515985  T        0
O       14.58746456      -0.11236040      -3.89710594  T        0
Si      15.67255629       4.24775782      -2.34051635  T        0
Si      12.84146822       2.74566494      -1.74342715  T        0
Si      14.70020986       7.22330608      -1.68517367  T        0
Si      14.04967080      -0.13432775      -2.34090178  T        0
O       13.13424919      -1.42000389       9.60361527  T        0
O       15.72788683      -6.06176402       9.81617238  T        0
O       11.54631143      -3.58818778       9.89644419  T        0
O       16.79138534      -3.73770014       8.82086094  T        0
O       16.31431103      -3.96781241      11.37629679  T        0
O       12.66466422      -3.13654327       7.59461326  T        0
O       14.23252264      -3.85585980       9.63565427  T        0
O       17.21357381      -1.40256908       7.55598607  T        0
Si      12.91700612      -2.99596084       9.20513585  T        0
Si      15.75420408      -4.41096923       9.89194997  T        0
Si      17.59940646      -3.00003983       7.59896249  T        0
O       15.94921766      -6.03740166       5.88477893  T        0
O       12.99590554      -1.47005922       1.97174056  T        0
O       13.16800667      -1.51199758       5.56069507  T        0
O       15.88355047      -5.95704474       1.59209131  T        0
O       17.11033596      -3.68054650       6.17639957  T        0
O       11.71016198      -3.78114157       2.42986142  T        0
O       11.89128504      -3.79789106       5.10944830  T        0
O       16.95492423      -3.57237418       1.34798523  T        0
O       16.16337424      -4.34322645       3.77059683  T        0
O       12.63197874      -3.20859518      -0.02426955  T        0
O       14.46146310      -3.82413425       5.76384386  T        0
O       14.31911177      -3.79957316       1.94944728  T        0
O       11.30307571      -6.09099472       3.79615665  T        0
O       17.34159219      -1.38551406      -0.14371660  T        0
O        9.52541219      -4.07972609       4.05903533  T        0
Si      15.91452978      -4.46137444       5.38161535  T        0
Si      12.91048476      -3.03589611       1.58243520  T        0
Si      13.03630879      -3.07848083       6.00854638  T        0
Si      15.81616287      -4.40618124       2.16691228  T        0
Si      11.10838075      -4.43962114       3.81134302  T        0
Si      17.60268848      -3.00221196      -0.06043803  T        0
O       15.74782659      -6.08600509      -2.27941720  T        0
O       13.16657593      -1.47332104      -2.01016619  T        0
O       16.83275750      -3.76786010      -1.29242410  T        0
O       11.56183197      -3.63584924      -2.34869790  T        0
O       16.30579201      -3.97098944      -3.83110078  T        0
O       14.24886610      -3.90109665      -2.04037837  T        0
Si      15.76943214      -4.43310187      -2.34283259  T        0
Si      12.92062366      -3.04852081      -1.62418512  T        0
H       15.75671561       9.37610020       5.45468838  F        0
H       15.75699573       9.38061947       2.07980242  F        0
H        6.67730558       3.15591219       1.89974949  F        0
H        6.67493943       3.16061899       5.63310767  F        0
H       11.31595404       9.37380971       3.76235534  F        0
H        6.99637682       6.62282801       3.76194275  F        0
H       20.08726577       2.93486642       7.54597012  F        0
H       20.08726577       2.93486642      -0.00052988  F        0
H       20.08739461      -2.93488337       7.54749186  F        0
H       20.08739461      -2.93488337       0.00099186  F        0
H       15.75699573       9.38061947       9.62630242  F        0
H       11.39369377       3.98884644      10.77146895  F        0
H       15.92754156       4.15729643      12.25107281  F        0
H       12.88235039       7.13795337      10.76981689  F        0
H       14.07270598       0.00010018      12.23669175  F        0
H       15.75671561       9.37610020      -2.09181162  F        0
H       11.39412799       3.98861071      -3.24188863  F        0
H       15.92661844       4.15901570      -4.70770176  F        0
H       12.88191441       7.13773895      -3.23957932  F        0
H       14.07160463      -0.00015943      -4.71417255  F        0
H       15.17712900      -6.61799919       9.23343573  F        0
H       11.39439525      -3.98966818      10.77116771  F        0
H       15.92688062      -4.16242016      12.25007275  F        0
H       15.17320598      -6.62175386       5.84596239  F        0
H       15.17712900      -6.61799919       1.68693573  F        0
H       12.12595522      -6.62290057       3.76264176  F        0
H        8.59739021      -4.20337067       3.76217937  F        0
H       15.17320598      -6.62175386      -1.70053761  F        0
H       11.39521725      -3.98937216      -3.24237523  F        0
H       15.92569105      -4.16115943      -4.70878458  F        0
Fe      14.58390810       2.22488712       3.66734118  T        1
