136
Lattice="20.102 0.0 0.0 0.0 19.731 0.0 0.0 0.0 13.253" Properties=species:S:1:pos:R:3:move_mask:L:1:tags:I:1 i=77 E=-3472.0240129048 regions="_JSON [\"Active\"]" n_terminators=34 energy=-903.4595860507051 pbc="F F F"
O        9.95961389       8.30539532       9.15182301  T        0
O        7.62319480       8.91465460      10.21932231  T        0
O        7.56296349       7.29283384       8.18746772  T        0
O       12.30677022      12.63676079       4.58925634  T        0
O        8.32572587       9.88980267       7.82732373  T        0
O        3.59992759      11.30376859       5.90602536  T        0
O        6.19308038       8.82526516      12.79402641  T        0
O        6.25652539      11.00312621      11.32134794  T        0
O        4.68347442       8.67475703      10.34108286  T        0
O       15.11338578       8.66185792       8.95632040  T        0
O        4.05730654      12.30950726       8.29433609  T        0
O       14.72700933      12.41207341      11.64090979  T        0
O        5.99323359      10.91686731       7.07223959  T        0
O       16.18891842      10.29618400      12.49517091  T        0
O        3.86567517       9.65428624       7.99897022  T        0
O       14.01983645       9.89353476      11.14699569  T        0
O        7.89732284      12.55727257       7.84292896  T        0
O        7.46672795      17.29986668       7.92717252  T        0
O        8.20032684      11.28326560       5.53033435  T        0
O       11.44225538       8.92336182       7.14411971  T        0
O        2.10955288       8.49703656       9.68331504  T        0
O       12.63398196       8.30550761       9.55095086  T        0
O       11.25248036      10.59015122       9.33382275  T        0
O        3.79414301       7.00879750       8.33222555  T        0
O       14.45253804       7.27447014      11.25444583  T        0
O        9.85048755      17.39992352       9.05352328  T        0
O        9.89421877      12.77101114       9.56465646  T        0
O        7.70074749      16.80411006      10.58341497  T        0
O        7.41480997      13.22759194      10.42099473  T        0
O        8.55708407      14.99630626       8.79418346  T        0
O        6.25241962      13.01059116      12.89979102  T        0
O        4.74778328      13.17491028      10.72568180  T        0
O       15.28194534      13.26021490       9.14637196  T        0
O       14.16944561       4.81863911      12.12661431  T        0
O       14.14695559      13.82494240       6.15345998  T        0
O       16.49353010       6.01615195      12.52550878  T        0
O       11.80910342      14.92593235       5.95402500  T        0
O       11.91957276      12.55324201       7.23770753  T        0
O        2.19881279      13.38690893      10.00962718  T        0
O       12.70843821      13.03996466       9.97770385  T        0
O        4.02537208      14.89339850       8.78728952  T        0
O       14.36360152      14.90982535      11.04910016  T        0
Si       8.36293209       8.58196127       8.83175097  T        0
Al       6.13372461       9.23897053      11.04537438  T        0
Si       4.38355224      11.03403121       7.32328645  T        0
Si      14.67206739      10.90805923      12.25189861  T        0
Si       7.60559999      11.14081581       7.05781004  T        0
Si      11.38630659       9.02938347       8.78181452  T        0
Si       3.66246924       8.45774230       9.10615611  T        0
Si      14.10321443       8.52657498      10.26093767  T        0
Si       8.40646186      16.60848310       9.09343325  T        0
Si       8.43466576      13.40637860       9.13274878  T        0
Si       6.16690231      12.61981128      11.27561202  T        0
Si      14.86219964       6.26889615      12.48099923  T        0
Si      12.54465256      13.43865662       6.02399303  T        0
Al      11.55272404      12.33974109       8.90257108  T        0
Si       3.74445332      13.41587182       9.43888198  T        0
Si      14.22026184      13.39186253      10.42143029  T        0
O       10.17766005      11.02710330      17.24854038  T        0
O       12.58709827      11.22895251      16.09763465  T        0
O       12.06221928      12.76387042      18.12942219  T        0
O       12.31552872      10.10134694      18.55794126  T        0
O       13.72631394      10.91601851      13.59359910  T        0
O       13.47316811       8.93210337      15.31620275  T        0
O        4.96076324      10.62492659      17.32649459  T        0
O       15.27828391      10.98513555      15.61362779  T        0
O        5.71381452       7.42276296      15.03175656  T        0
O        3.86555672       9.23968225      14.29383122  T        0
O       14.28774772       8.84928241      19.86904957  T        0
O        6.21616917      10.10629420      14.96497251  T        0
O       12.38099612       7.42867796      18.55406932  T        0
O        8.67355731      10.81270595      19.37216457  T        0
O       11.77542408       8.61068731      20.79224309  T        0
O        7.50672982      11.23958432      16.95966363  T        0
O        8.59100175       8.87455142      17.43942236  T        0
O        5.72904799      12.62298000      15.49996820  T        0
O       10.29263281       6.81995613      16.98237118  T        0
O       12.79077463       6.48675277      16.08999775  T        0
O       11.89752895       4.88278356      18.06442531  T        0
O       14.33070115       6.82501088      13.92730596  T        0
O        5.16039771       6.77264211      17.57317555  T        0
O       15.31258983       7.50446426      16.37281066  T        0
O        5.17066062      15.02896650      14.36393875  T        0
O        3.69358533      12.81149204      13.90944913  T        0
O        8.81017880       6.74040543      19.11294753  T        0
O        7.64631308       6.52193389      16.67848768  T        0
O        5.73595387       4.90181395      15.63293214  T        0
Si      11.78421257      11.25663551      17.53126656  T        0
Si      13.75480092      10.53086789      15.18434196  T        0
Si       5.44333810       8.79834580      14.23451209  T        0
Si      12.69286486       8.76695582      19.43953894  T        0
Si       8.73335955      10.47172932      17.76223637  T        0
Si       6.04935942      11.19253252      16.23768829  T        0
Si      11.82335411       6.39519286      17.42130542  T        0
Si      13.97134862       7.39733015      15.41072672  T        0
Si       5.20978659      13.40345884      14.13968428  T        0
Si       8.82761338       7.25603523      17.55546022  T        0
Si       6.07770645       6.38585585      16.24986026  T        0
H        7.84356088       6.72376138       7.45668423  F        0
H       11.77741500      11.82883679       4.45015372  F        0
H        3.46536401      10.58100877       5.26900439  F        0
H       16.04398914       8.93133647       8.84225548  F        0
H       16.97340651      10.80641058      12.75613404  F        0
H        7.69777211      18.11826613       7.44841170  F        0
H        8.50665683      10.58475679       4.91774357  F        0
H       12.20788617       8.97653229       6.55602501  F        0
H        1.92726146       8.79770260      10.59110356  F        0
H        4.51576461       6.77574371       7.71911054  F        0
H       10.76020324      17.16956735       9.31164421  F        0
H        6.74596320      16.92620537      10.74076342  F        0
H       15.75661379      12.42699387       9.00459924  F        0
H       14.42640568       4.01828351      12.61908764  F        0
H       14.91456245      13.24933472       6.30897701  F        0
H       17.11292418       6.48361095      13.10695602  F        0
H       12.17714149      15.71306863       6.40017283  F        0
H        1.73086689      12.60761804      10.35624453  F        0
H        4.05997682      15.72757570       9.28699687  F        0
H       14.11111957      15.72757569      10.59245558  F        0
H       12.25872463      13.00694285      19.04928406  F        0
H        4.05829635      10.79936776      17.66371281  F        0
H       15.58095515      11.20568437      16.50370227  F        0
H        3.12887899       8.92429365      13.74983426  F        0
H       15.03932990       8.88569483      19.24568334  F        0
H        7.89439933      10.75417195      19.94994328  F        0
H       11.59562866       9.14594745      21.58822472  F        0
H       11.61525895       4.01919395      17.70533654  F        0
H        4.34567170       7.30371036      17.50136906  F        0
H       15.83774429       6.73639486      16.63016865  F        0
H        5.67587981      15.71242072      13.88688066  F        0
H        2.98936131      13.24709329      13.39901228  F        0
H        8.00892554       6.80873427      19.65039775  F        0
H        5.99116592       4.00312854      15.91351272  F        0
Fe       9.84704686      11.03344020      10.81812547  T        0
Fe       7.42189895      10.69036117      13.16143903  T        1
O        9.35317581      10.19682180      12.58208831  T        2
O        9.09277300      11.67794964      12.65883970  T        3
