133
Lattice="19.123 0.0 0.0 0.0 14.277 0.0 0.0 0.0 7.5465" Properties=species:S:1:pos:R:3:move_mask:L:1:tags:I:1 i=128 E=-2603.9155142701 regions="_JSON [\"Active\"]" n_terminators=32 energy=-887.5029809301872 pbc="F F F"
O       15.61838057       8.44186830       5.78038404  T        0
O       13.26556238       1.09821489       1.32563352  T        0
O        6.02324547      13.11434915       1.47874185  T        0
O       15.66578299       5.76361086       5.85482013  T        0
O       12.80809291      13.08663041       1.96909780  T        0
O       13.21490654      13.21383847       6.20046539  T        0
O        3.15755931       5.82378685       1.81964828  T        0
O       15.74101602       5.80309355       1.79272113  T        0
O       13.10762497       1.09016146       6.13251251  T        0
O        3.34933017       8.48476896       1.63993430  T        0
O       15.63804054       8.49820024       1.78647144  T        0
O        6.78280051       3.35134466       2.85067633  T        0
O       17.15789794      10.62788176       6.18424814  T        0
O       11.89115289       3.21075931       2.39285758  T        0
O        7.13904654      10.76985922       2.33808963  T        0
O       17.15930282       3.52703769       6.13414419  T        0
O       11.56927841      10.74772292       2.14829085  T        0
O       11.95069587      11.09081148       5.04109731  T        0
O        7.45398455      11.01031458       5.04951992  T        0
O       17.18231534       3.53951804       1.43162704  T        0
O       11.84098184       3.32958072       5.16075343  T        0
O        1.90213047      10.74075231       1.44157022  T        0
O        7.41692308       3.73428372       5.35119144  T        0
O       16.80318574      10.87376297       1.34176975  T        0
O       16.02663480      10.19941861       3.82096658  T        0
O       12.60047182       3.33848478      -0.05780921  T        0
O        2.78722679       9.93752465       3.82787066  T        0
O        6.20221561      11.09860567      -0.15694394  T        0
O       16.14106885       4.11402124       3.80120003  T        0
O       12.66234557      11.40365133      -0.15950633  T        0
O       14.48171412      10.86741127       5.90281369  T        0
O       14.50549239       3.42369538       1.81813580  T        0
O        4.54079661      10.88343994       1.97352801  T        0
O       14.47088053       3.36503871       5.75824155  T        0
O       14.23408121      10.77829238       1.93871246  T        0
O       11.58943884       8.43996103       3.72432191  T        0
O        7.19489395       8.56324054       3.88208305  T        0
O       11.47809324       5.84476050       3.64138781  T        0
O       17.32175970      13.14260975      -0.07935643  T        0
O        7.53088947       5.90415928       3.65307377  T        0
O        9.39952671      10.08950189       3.51735921  T        0
O        9.39164175       4.23917068       3.54321008  T        0
O       13.44882943       7.02768312       5.08109803  T        0
O        5.66993954       6.75192577       5.22473205  T        0
O        5.44081267       7.08253656       2.51129610  T        0
O       13.47162983       7.08610006       2.38174013  T        0
O       14.41537147       7.09064640      -0.12605120  T        0
O        4.85702345       6.95187620      -0.03336928  T        0
Si      15.80534598      10.03856532       5.44446381  T        0
Si      13.06606394       2.74692652       1.40657169  T        0
Si       5.96313497      11.47223503       1.41981236  T        0
Si      15.83434048       4.18662738       5.40746085  T        0
Si      12.86832844      11.51623600       1.45782411  T        0
Si      13.01734675      11.56955785       6.15707951  T        0
Si      15.87903477       4.20994701       2.18976932  T        0
Si      12.98582520       2.74944354       6.12917917  T        0
Si       3.17004580      10.02262563       2.21959442  T        0
Si      15.69061513      10.07375373       2.22691099  T        0
Al      11.18261513      10.14945324       3.85183640  T        0
Si       7.76713742      10.10644813       3.70731302  T        0
Al      11.21712607       4.03229761       3.73618022  T        0
Si      17.54790496      11.49637047       0.01210779  T        0
Si       7.77113970       4.22985805       3.83011885  T        0
Si      14.74061605       7.09167389       6.09628278  T        0
Si       4.17517566       7.07888508       1.46819805  T        0
Si      14.82417240       7.11044326       1.46095314  T        0
Si      12.54573547       7.12342039       3.72835013  T        0
Si       6.40607548       7.13429813       3.80873601  T        0
O       19.14126279      11.15271515       0.19318367  T        0
O       12.46770915       3.25227808       7.60570269  T        0
O       12.38694180      11.11093563       7.60646058  T        0
O       14.13020844       7.13638243       7.62768807  T        0
O       15.64837025       8.46867040      -2.05094486  T        0
O       15.91804442       5.85621304      -2.04772488  T        0
O       12.87574865      13.04864125      -2.30745845  T        0
O        6.26013368      13.01073562      -2.13854108  T        0
O       16.93005585      10.74238185      -1.32220938  T        0
O        7.54574137      10.91306967      -5.25090069  T        0
O       11.58107856      10.81178658      -5.29617476  T        0
O       11.75108987      10.70072725      -2.57571413  T        0
O        7.15454097      10.55156117      -2.57313716  T        0
O       16.35972896      10.35033046      -3.86472285  T        0
O       14.38144617      10.80977961      -2.08789512  T        0
O        4.46515961      11.08745117      -2.25216109  T        0
O       11.77143046       8.45132034      -3.99440336  T        0
O        7.23672118       8.45569971      -4.29096292  T        0
O       11.34266559       5.87445090      -3.88311548  T        0
O        9.51143650       9.93230054      -3.82173296  T        0
O       13.50716990       6.95247291      -2.62231964  T        0
O       13.41590678       6.73741787      -5.32866441  T        0
Si      15.82239838      10.07482550      -2.32608242  T        0
Si      12.93436474      11.48821593      -1.77881147  T        0
Si       6.01845148      11.42485998      -1.76862998  T        0
Si      11.15576797       9.97256360      -3.93365336  T        0
Si       7.86201415       9.95036805      -3.94999507  T        0
Si      14.85586436       7.07440350      -1.70494965  T        0
Si      12.53728931       7.00572536      -3.94690001  T        0
H       13.50938118       0.51971906       2.07492992  F        0
H        5.61112307      13.75835362       2.07975607  F        0
H       13.50958039      13.75682243       2.07498241  F        0
H       13.51084140      13.75504172       5.44776650  F        0
H        3.36661743       4.89904760       2.07505888  F        0
H       13.50975252       0.52161770       5.44778410  F        0
H        6.67730558       3.15591219       1.89974949  F        0
H       17.28974254      11.12548174       7.01862795  F        0
H       17.28979000       3.14560285       7.02339196  F        0
H        6.67998430      11.11604137       5.63469228  F        0
H       17.29134854       3.14797220       0.53999843  F        0
H        1.83154049      11.12909684       0.54034962  F        0
H        6.67493943       3.16061899       5.63310767  F        0
H       12.76076393       2.97683097      -0.93375646  F        0
H        3.19647477      10.11404518       4.70477207  F        0
H       16.56020813      13.76127004      -0.00066979  F        0
H        4.87489857       7.13453431       5.62990583  F        0
H        4.51175007       7.13509558      -0.92932085  F        0
H       20.08739461      11.34211663       0.00099186  F        0
H       12.76321398       2.97604733       8.47995589  F        0
H       12.76333233      11.30075111       8.47967776  F        0
H       14.61405599       7.13800201       8.47661577  F        0
H       15.75636517       4.89339805      -2.09021006  F        0
H       13.51084140      13.75504172      -2.09873350  F        0
H        5.62495998      13.75277707      -2.09714276  F        0
H        6.67686405      11.12256578      -5.64493030  F        0
H       12.44599272      11.12072140      -5.64644730  F        0
H       15.92569105      10.11584057      -4.70878458  F        0
H        3.92376286      10.29502607      -2.09159850  F        0
H        6.99606890       7.65472256      -3.78428573  F        0
H       11.31540413       4.90177526      -3.78397907  F        0
H       14.25080708       7.13791561      -5.64139813  F        0
Fe      10.18208502       9.37191311       1.51971044  T        0
Fe       9.63734524       6.33469132       2.92007329  T        1
O       10.13426983       7.68739760       0.60599304  T        2
O        9.03475087       7.64750595       1.60051463  T        3
