138
Lattice="24.397 0.0 0.0 0.0 24.397 0.0 0.0 0.0 24.397" Properties=species:S:1:pos:R:3:move_mask:L:1:tags:I:1 i=41 E=-6943.8331748197 regions="_JSON [\"Active\"]" n_terminators=32 energy=-931.1894354339994 pbc="F F F"
O       21.69350469       2.43893198       0.06212197  T        0
O       21.86432823       5.99429702       3.57994727  T        0
O       15.68707950       9.79566362       6.23607121  T        0
O       20.82073413      12.35467594       3.63902029  T        0
O       21.01104007       3.56198331      12.52950404  T        0
O       15.56830752       6.24811514       9.69184222  T        0
O       21.74022056       0.13569482       2.46794575  T        0
O       18.27750216       9.81383287       3.55784411  T        0
O       21.89889373       3.51189735       6.13656262  T        0
O       18.40736713       3.29795181       9.65900469  T        0
O       23.74099879       1.75665370       1.83831325  T        0
O       22.67206189       5.22919971       8.03227191  T        0
O       22.81042310       8.01326223       5.35123740  T        0
O       17.68405685      10.50785659       7.91632081  T        0
O       20.16368195      10.47063004       5.36051658  T        0
O       23.76204240       4.23755099       4.32218613  T        0
O       18.86391223      14.16659950       4.24856515  T        0
O       16.27296827      11.47403151       4.17906064  T        0
O       17.62292566       7.83773962      10.58679531  T        0
O       20.11482068       5.18952218      10.57989285  T        0
O       20.90564225       5.99386050       6.18925671  T        0
O       18.17507487       8.82076799       6.02088394  T        0
O       22.01960697      12.33756957       6.07758586  T        0
O       20.89615922       0.01317723       0.02482542  T        0
O       24.40820738       2.56938782       6.31055683  T        0
O       24.41305789       6.29207390       2.65174063  T        0
O       18.28803377      12.29013742       2.60023153  T        0
O       14.59857090      12.27424937       6.14816979  T        0
O       18.15472961       5.90366373       8.93731872  T        0
O       21.99910625       6.09636602      12.30887034  T        0
O       22.67714620       4.37458691       1.86807909  T        0
O       13.80563362      10.41350982       4.42617975  T        0
O       22.68649860       4.34486689      10.55049003  T        0
O       20.05021879       8.00096939       4.32747160  T        0
O       16.63878312       7.99895853       8.05023536  T        0
O       22.68776737      10.52037930       4.36787058  T        0
O       20.20318894      14.06961394       1.82187806  T        0
O       16.58017149      10.41367504       1.67906712  T        0
O       22.79582696       1.72932379       4.35912323  T        0
O       20.16111353       4.28673824       8.05280402  T        0
Al      23.24149620       3.06871626       0.79804275  T        0
Si      23.62370811       4.83949947       9.29927249  T        0
Al      21.38890699       7.10124995       4.95421415  T        0
Si      17.01763697       9.26193711       7.05803169  T        0
Si      21.40448334      11.41752507       4.86106324  T        0
Si      23.21705359       0.84898947       3.04267578  T        0
Si      19.18482029       9.26136875       4.80493762  T        0
Si      21.39905421       4.78087330       7.09489367  T        0
Si      23.66233174       9.29273793       4.87394455  T        0
Si      23.21309236       3.02495743       5.29804871  T        0
Si      17.33636262      11.01623348       3.00983290  T        0
Si      19.20514813       4.69936187       9.30395816  T        0
Si      15.11954475      10.99063323       5.24568319  T        0
Si      19.55045162      13.22160607       3.07493854  T        0
Si      23.28041242       5.25150697       3.12951774  T        0
Si      21.41752634       4.79148669      11.49826033  T        0
Si      16.99626264       6.99826448       9.30622181  T        0
O       24.62930033       3.63303716       8.80407224  T        0
O       24.65173901       8.81449101       3.62731930  T        0
O       26.40119257       6.73542488       4.16660304  T        0
O       26.30607162       4.25442033       6.73429608  T        0
O       24.62057250       9.91794350       6.06989403  T        0
O       24.49721179       6.13126465       9.83084381  T        0
O       26.24931975       8.06440393       1.74676014  T        0
O       26.33015618       1.82984489       8.08035379  T        0
Si      25.44281488       7.50922119       3.06899247  T        0
Si      25.42965923       3.07560146       7.49077126  T        0
O       24.64627178       2.42487122      -2.77916577  T        0
O       26.21596072       1.76284354      -0.68348798  T        0
O       24.41655659      -0.12170779      -3.68784759  T        0
O       26.48225799       4.16659514      -2.01967390  T        0
Si      25.44105460       3.01471982      -1.44812423  T        0
O       24.64617587      -2.75865089       2.41731215  T        0
O       26.30638800      -0.66062732       1.86866252  T        0
O       24.40607597      -3.66912430      -0.12213031  T        0
O       26.25741378      -1.94840332       4.31552539  T        0
Si      25.39998418      -1.42227013       3.01428537  T        0
O       17.97487884       2.38629023      -3.45794560  T        0
O       21.00822972       2.57284031      -6.37009312  T        0
O       19.99487907       0.92771185      -4.53315359  T        0
O       22.68501396       0.82817994      -1.86407489  T        0
O       24.38544131       3.58472596      -0.37238702  T        0
O       18.39038878      -0.17825487      -2.65823148  T        0
O       21.94719738      -0.01029258      -6.17023459  T        0
O       20.10208203       1.63126388      -1.96163993  T        0
O       22.59183918       1.70010572      -4.36885181  T        0
Si      19.09423141       1.20169214      -3.19625812  T        0
Si      21.36042815       1.29794587      -5.37675042  T        0
Si      23.61640314       1.22178806      -3.18273388  T        0
Si      21.36700280       1.23622925      -1.02041636  T        0
O       18.06547080      -3.42283113       2.51604598  T        0
O       20.99264605      -6.35705598       2.53882182  T        0
O       22.69397267      -1.83270301       0.86792198  T        0
O       19.99171661      -4.46256660       0.91924168  T        0
O       24.24548388      -0.33968501       3.45525972  T        0
O       18.32252227      -2.56577104      -0.07286852  T        0
O       21.90221112      -6.12177223      -0.04940993  T        0
O       20.11191813      -1.90200165       1.69549486  T        0
O       22.58313639      -4.35656327       1.69236645  T        0
Si      21.37768654      -0.98553413       1.25152474  T        0
Si      21.33474752      -5.34716705       1.27784725  T        0
Si      23.60545094      -3.17254114       1.22040791  T        0
Si      19.09253432      -3.13669701       1.25789647  T        0
H       20.10951519       3.23923103      12.72546793  F        0
H       15.43757911       5.57209275      10.38640946  F        0
H       17.77043311       3.23924387      10.38640412  F        0
H       17.22544067      10.92750153       8.65411313  F        0
H       19.36965547      14.75328399       4.82834093  F        0
H       17.22544070       8.65411150      10.92750362  F        0
H       21.54216027      12.99764967       6.60187561  F        0
H       15.05290853      12.70105704       6.89848521  F        0
H       21.54216028       6.60187434      12.99765198  F        0
H       13.44269068      10.71000821       3.56560630  F        0
H       19.78591980      14.73191782       1.24430354  F        0
H       15.76397041      10.70999753       1.24433830  F        0
H       26.95194123       7.17131746       4.82834527  F        0
H       26.95194124       4.82834452       7.17131883  F        0
H       25.19630608       9.34383456       6.60185911  F        0
H       25.19630604       6.60185806       9.34383627  F        0
H       26.93058105       7.58756876       1.24433203  F        0
H       26.93058086       1.24433163       7.58757011  F        0
H       26.95192867       1.27083937      -1.07240246  F        0
H       25.19622735      -0.50276655      -3.24494277  F        0
H       26.93057835       4.85486043      -1.48866112  F        0
H       26.95192866      -1.07240650       1.27083969  F        0
H       25.19622853      -3.24494603      -0.50276481  F        0
H       26.93057847      -1.48866524       4.85486109  F        0
H       17.77043356       2.85994955      -4.28747201  F        0
H       20.10952426       2.85994950      -6.62656333  F        0
H       17.49833355      -0.50278089      -2.85477948  F        0
H       21.54221652      -0.50278066      -6.89866328  F        0
H       17.77043326      -4.28747560       2.85995000  F        0
H       20.10952426      -6.62656664       2.85995001  F        0
H       17.49833238      -2.85478383      -0.50277915  F        0
H       21.54221602      -6.89866750      -0.50277915  F        0
Fe      20.56680104       1.78558905       1.71637464  T        0
Fe      20.68119046       4.59950721       2.81044376  T        1
O       19.63878892       3.14255403       2.47255837  T        2
