142
Lattice="20.102 0.0 0.0 0.0 19.731 0.0 0.0 0.0 13.253" Properties=species:S:1:pos:R:3:move_mask:L:1:tags:I:1 i=77 E=-3472.0240129048 regions="_JSON [\"Active\"]" n_terminators=30 energy=-978.5727884238922 pbc="F F F"
O       10.11548124       8.89707102       9.41383395  T        0
O       -0.15499430       8.34660259      11.29570642  T        0
O       10.01046541      11.27253904       3.96844554  T        0
O        2.11135937      11.17016590       3.86686732  T        0
O        7.70309698       8.47089216      10.53749983  T        0
O       12.18251009      11.21114390       2.56939355  T        0
O        8.47647664       2.79097008       8.32436320  T        0
O        2.14588435      12.67266689       1.74039574  T        0
O        8.51305675       6.98409268       8.40953835  T        0
O       12.18553902      12.53563225       4.92280881  T        0
O        2.01334292       9.93645947       1.61780549  T        0
O        7.78686763       9.46739483       8.12273047  T        0
O       12.14102198       9.89277521       4.92500044  T        0
O        3.26897034      10.83113108       6.17209198  T        0
O        6.49445182       9.14082558      12.82889786  T        0
O        3.47491789       8.90078075       4.33315433  T        0
O        6.62905229      10.89097914      10.74877170  T        0
O        4.84034683      11.18080378       4.06029924  T        0
O        5.02537887       8.80944077      10.63222628  T        0
O        4.04553244      12.47813715       8.14158993  T        0
O        5.99696060       7.34668721       1.30987973  T        0
O        5.66700193      10.53393120       7.25031321  T        0
O        3.90645829       8.62403758       0.20180307  T        0
O       14.22789744       9.07464981       6.48938379  T        0
O        3.54696710       9.95548609       8.68932075  T        0
O        5.49785004       9.92362558       1.87801346  T        0
O        7.74026992      12.50490175       8.03125227  T        0
O        1.71119387       7.36479014       1.03215810  T        0
O       12.50895400       7.33479202       5.30923784  T        0
O        8.08699057      10.77752869       5.70599618  T        0
O        1.77553217       9.07887554      12.89416155  T        0
O       11.80663482       8.88427894       7.38154094  T        0
O        7.41326805      11.22673413       3.19226744  T        0
O        2.40115827       8.32121443      10.40262044  T        0
O       12.59597749       8.33170830       9.94444641  T        0
O        8.69208938       8.98215991       3.79230797  T        0
O        1.19159887      10.66701591      10.82481737  T        0
O       11.94599100      10.84419331       9.18661056  T        0
O        4.88112630       1.93098733       8.41571863  T        0
O        5.47070055      12.67353364       2.01944855  T        0
O        4.29205720       7.45484297       8.52921068  T        0
O        0.02512490       6.80987138       3.08458070  T        0
O        9.95530970      12.59072633       9.50287314  T        0
O       10.31341787       6.85035457       3.80851906  T        0
O        2.60216900       6.53598162       3.44972745  T        0
O        7.63733510      13.36896650      10.52633543  T        0
O       12.74367442       6.35917818       2.79135162  T        0
O        8.95807890      14.87098539       8.67872852  T        0
O        1.39876783       4.86457997       1.71796036  T        0
O       11.86178169       4.87252544       4.84576312  T        0
O        3.62898346       6.74410259       5.90625134  T        0
O        6.49698476      12.49327085      12.78967647  T        0
O        3.78257904       2.32046544       6.02803679  T        0
O        5.19594451       6.92886836       3.80737173  T        0
O        5.00430064      13.05821308      10.60884210  T        0
O        4.45211088       4.48849445       7.57165560  T        0
O        6.27376515       6.71901052       7.03559819  T        0
O        6.35823799       2.89861178       6.52141836  T        0
O       14.09790808      13.07898614       6.80033649  T        0
O        8.17132161       4.82624588       6.81353255  T        0
O       12.33569459      14.95817875       5.80825955  T        0
O        8.53034007       7.21228863       5.74365915  T        0
O        1.20170786      12.68557881      12.59922456  T        0
O        8.86357266       2.48261079       5.68829851  T        0
O       11.64641020      12.92774072       7.52107522  T        0
O        7.73710410       6.55553679       3.24357662  T        0
O        2.43191078      12.96307360      10.21282056  T        0
O       12.38191140      13.33739337      10.11804130  T        0
O        3.83390525      14.87486537       8.89426263  T        0
O        5.92915744       4.85370631       2.17885909  T        0
Si       1.49322256      11.29699513       2.35199368  T        0
Si       8.58342347       8.46043170       9.14466652  T        0
Si      11.62982964      11.22371345       4.11928379  T        0
Si       3.43408123      10.51328056       4.57015857  T        0
Si       6.46982692       9.32782974      11.21703058  T        0
Si       4.10719085      10.98261831       7.54512228  T        0
Si       5.45869059       8.78714586       0.72690725  T        0
Al       7.43040937      11.00838368       7.25815136  T        0
Si       2.30395464       8.79630035       0.50584244  T        0
Si      12.67588903       8.79869434       6.00662960  T        0
Si       8.54371398      10.57157734       4.18859107  T        0
Si       1.29341257       9.12009413      11.33914598  T        0
Si      11.65286848       9.25444983       8.96774649  T        0
Si       5.83791690      11.25581918       2.75500031  T        0
Si       3.78131014       8.60502352       9.58868895  T        0
Si       1.43309812       6.39591438       2.32672624  T        0
Si       8.54716930      13.34668017       9.15084076  T        0
Si      11.83756937       6.36670444       4.17305765  T        0
Si       3.70556924       7.28372408       4.39442428  T        0
Si       6.43502868      12.46765245      11.15072661  T        0
Al       4.54106886       6.18021733       7.25699512  T        0
Si       4.82701431       2.97036152       7.13557870  T        0
Si       7.90065158       6.39820555       6.99735070  T        0
Si       7.93248722       3.21128762       6.83910173  T        0
Si      12.56636371      13.39173399       6.25920712  T        0
Si       8.81548202       7.40476491       4.14028304  T        0
Si       1.17107294      12.29693631      10.98896849  T        0
Si      11.51015062      12.42004687       9.07044792  T        0
Si       6.21472861       6.41205541       2.64608483  T        0
Si       3.84014578      13.35751948       9.49797172  T        0
O        1.94972206       9.79935285      15.49191657  T        0
O        6.09354300       7.30093447      14.61442577  T        0
O        4.16811964       9.22440572      14.04986323  T        0
O        6.35488662       9.83278554      15.47541543  T        0
O        2.61057694       7.31127229      14.80643471  T        0
Si       5.75694598       8.87321950      14.27323257  T        0
Si       2.59552761       8.86889095      14.29138473  T        0
O        6.44396809       9.39775920      -0.43393490  T        0
O        1.45562739       9.36861037      -0.77682206  T        0
O       -0.14706609      11.47301182       2.32289345  T        0
O       -0.16564611      12.91186450      10.26716422  T        0
H       -0.89571882       8.42972886      10.66739018  F        0
H       13.03074804      10.85204106       2.26762503  F        0
H        8.32487049       1.96348467       8.80281458  F        0
H        2.20758188      13.00694286       0.83020008  F        0
H       15.03932990       8.88569483       5.99268334  F        0
H       13.54926599       8.42132791      10.11787432  F        0
H        4.22937586       1.85859719       9.12987557  F        0
H        5.53537813      12.95496052       1.09262639  F        0
H       -0.70903753       7.30425969       2.68512250  F        0
H       13.35632228       7.06085325       2.51220488  F        0
H        8.48702655      15.71151028       8.80063176  F        0
H        1.56411620       4.01919395       2.17414761  F        0
H       11.61525895       4.01919395       4.45233654  F        0
H        5.86807409      12.98161584      13.33116226  F        0
H        3.68470477       2.53683452       5.08310689  F        0
H       14.91456245      13.24933472       6.30897701  F        0
H       12.17714149      15.71306863       6.40017283  F        0
H        2.04221098      12.92196288      13.02389096  F        0
H        8.61892989       2.44869843       4.74740482  F        0
H       13.32025657      13.20375310      10.31771692  F        0
H        4.05997682      15.72757570       9.28699687  F        0
H        5.99116592       4.00312854       2.66051272  F        0
H        1.72488369      10.74421016      15.43958265  F        0
H        6.01932001       6.80354450      15.45091456  F        0
H        5.93864452      10.64983954      15.80845558  F        0
H        1.83990596       6.82542533      15.13110093  F        0
H        6.58577874       9.14969547      -1.35751146  F        0
H        1.54448592       9.14594745      -1.70877228  F        0
H       -0.90389482      10.88061926       2.50078840  F        0
H       -1.04605969      13.03623234      10.65268580  F        0
Fe       5.94554013       8.59041721       7.66293507  T        1
