142
Lattice="19.123 0.0 0.0 0.0 14.277 0.0 0.0 0.0 7.5465" Properties=species:S:1:pos:R:3:move_mask:L:1:tags:I:1 i=128 E=-2603.9155142701 regions="_JSON [\"Active\"]" n_terminators=34 energy=-949.3676875308944 pbc="F F F"
O        5.98390494       1.15608429       1.44374157  T        0
O       15.76469177       8.52294722       5.84365791  T        0
O       12.84308077       1.22542924       1.94955983  T        0
O        6.09154208      13.12011166       1.51821326  T        0
O       15.75092149       5.83757099       5.79662953  T        0
O       13.20573957      13.19273757       1.33791835  T        0
O       13.18836072      13.18070780       6.16935526  T        0
O        3.32858976       5.79345781       1.69184254  T        0
O       15.66250993       5.75926621       1.74717302  T        0
O       13.30370971       1.09434875       6.20790660  T        0
O        3.37726937       8.49085642       1.86717128  T        0
O       15.58239324       8.44737472       1.87559137  T        0
O        7.13932092       3.49649785       2.32945606  T        0
O       17.14518834      10.83416846       6.09683006  T        0
O       11.87787046       3.74494047       2.12962822  T        0
O        7.05429476      10.79169222       2.56648450  T        0
O       17.19455099       3.58048629       6.15178040  T        0
O       11.93536251      11.00978313       2.41182102  T        0
O       11.81906655      11.01652772       5.17277490  T        0
O        1.89021692       3.53924697       1.43577782  T        0
O        7.38769260      10.54523652       5.26716043  T        0
O       17.08689192       3.50678647       1.34798160  T        0
O       11.98971382       3.16614666       4.99807925  T        0
O        1.88880426      10.70911655       1.42407111  T        0
O        7.40655765       3.14498795       4.99742327  T        0
O       17.17753576      10.54699291       1.32181550  T        0
O        6.20161791       3.16166380      -0.18078051  T        0
O       16.14104866      10.18930847       3.76782297  T        0
O       12.78638337       2.92031729      -0.18434556  T        0
O        2.82085967      10.32627053       3.82238220  T        0
O        6.57952739      11.00112545      -0.02320743  T        0
O       16.13044740       4.10839813       3.79716650  T        0
O       12.52900140      10.97557691      -0.05843802  T        0
O        2.75326181       4.24403290       3.82388366  T        0
O        4.54266861       3.40311489       1.94111898  T        0
O       14.44690210      10.85202147       5.72169487  T        0
O       14.50287356       3.34559979       1.81913513  T        0
O        4.53916878      10.91101393       1.78933649  T        0
O       14.50532994       3.46808612       5.83360800  T        0
O       14.53964529      10.91655432       1.74313662  T        0
O       11.58095678       8.43870580       3.71426975  T        0
O       17.32035811       1.13917899       0.00218351  T        0
O        7.55670518       8.32693678       3.63556263  T        0
O       11.61625403       5.82216820       3.78263333  T        0
O        7.26515025       5.66467660       3.93235415  T        0
O        9.43914981       9.96544701       3.58324685  T        0
O        9.42196844       4.06212867       3.63510363  T        0
O       13.60523279       7.21801566       5.03004904  T        0
O        5.65701995       7.51110592       5.18861399  T        0
O        5.51884367       7.05827477       2.49216223  T        0
O       13.36429693       6.96628580       2.30934586  T        0
O       14.35557005       7.15315672      -0.13419868  T        0
O        4.87894784       7.23334989      -0.03074526  T        0
Si       5.97410795       2.80394376       1.40774586  T        0
Si      15.85176966      10.10557977       5.38070623  T        0
Si      13.02915629       2.77704318       1.42635335  T        0
Si       6.03466409      11.47161278       1.45707793  T        0
Si      15.87266770       4.23910987       5.41985734  T        0
Si      13.05183232      11.53939731       1.39790449  T        0
Si      12.99874781      11.52936063       6.13326015  T        0
Si       3.16550570       4.23459464       2.22135761  T        0
Si      15.86080508       4.18777201       2.19071004  T        0
Si      13.05922163       2.73226916       6.12770709  T        0
Si       3.18843743      10.08888481       2.22837796  T        0
Si      15.84877387      10.05403264       2.16366926  T        0
Al      11.24679969      10.22826481       3.77256749  T        0
Si      17.58785881       2.77718339      -0.05277302  T        0
Si       7.80338176      10.00377429       3.77683364  T        0
Al      11.14802502       4.08071712       3.81609730  T        0
Si       7.81328458       4.09920175       3.71061613  T        0
Si      14.86423414       7.18150178       6.09322424  T        0
Si       4.23320028       7.14322931       1.48182966  T        0
Si      14.78747779       7.10572885       1.44281254  T        0
Si      12.57787982       7.14214557       3.79336712  T        0
Si       6.45458019       7.07225505       3.81291847  T        0
O       19.17718503       3.05295965      -0.34642718  T        0
O       12.46212107       3.21566764       7.58653532  T        0
O       12.49961986      10.99872162       7.60537296  T        0
O       14.19325798       7.15052781       7.59500903  T        0
O       15.88563646       8.40984146      -2.02091058  T        0
O       15.61774750       5.79989988      -2.04061265  T        0
O       12.84707835       1.20761059      -2.28392438  T        0
O        6.25418010       1.26096899      -2.18426932  T        0
O        7.23736974       3.90644802      -5.36140648  T        0
O       11.57613296       3.43176213      -5.29791666  T        0
O       16.80057098       3.49245572      -1.30362205  T        0
O       11.71369750       3.55635036      -2.56242114  T        0
O        7.11154852       3.68472665      -2.64479373  T        0
O       16.41228806       3.99015967      -3.87794210  T        0
O       14.33825195       3.46818418      -2.26950762  T        0
O        4.44126709       3.17138747      -2.25265437  T        0
O       11.33126105       8.40165348      -3.90487692  T        0
O       11.71479965       5.80442166      -3.98735929  T        0
O        7.77783494       6.04813196      -3.81042202  T        0
O        9.50363115       4.17212951      -3.87863981  T        0
O       13.47341955       7.30652067      -2.63520305  T        0
O       13.38449302       7.48170855      -5.34590189  T        0
Si      15.79135198       4.20219465      -2.36471483  T        0
Si      12.93441198       2.78345402      -1.81687205  T        0
Si       6.00136950       2.83835113      -1.78585839  T        0
Si      11.13632561       4.26246912      -3.94011051  T        0
Si       7.87464102       4.40735293      -3.91940403  T        0
Si      14.81857857       7.18961531      -1.71928814  T        0
Si      12.49896569       7.24494698      -3.96323099  T        0
H        5.61083456       0.52083913       2.07985367  F        0
H       13.50938118       0.51971906       2.07492992  F        0
H        5.61112307      13.75835362       2.07975607  F        0
H       13.50958039      13.75682243       2.07498241  F        0
H       13.51084140      13.75504172       5.44776650  F        0
H       13.50975252       0.52161770       5.44778410  F        0
H       17.28974254      11.12548174       7.01862795  F        0
H       17.28979000       3.14560285       7.02339196  F        0
H        1.83183800       3.14857954       0.53722786  F        0
H        6.67998430      11.11604137       5.63469228  F        0
H        1.83154049      11.12909684       0.54034962  F        0
H        6.67493943       3.16061899       5.63310767  F        0
H       17.29120144      11.12876736       0.54010345  F        0
H        3.19647477      10.11404518       4.70477207  F        0
H        6.36236324      11.29726414      -0.93275871  F        0
H       12.76174962      11.29928001      -0.93393629  F        0
H        3.19279804       4.15795734       4.69750931  F        0
H       16.56036088       0.51548555      -0.00076213  F        0
H        4.87489857       7.13453431       5.62990583  F        0
H        4.51175007       7.13509558      -0.92932085  F        0
H       20.08726577       2.93486642      -0.00052988  F        0
H       12.76321398       2.97604733       8.47995589  F        0
H       12.76333233      11.30075111       8.47967776  F        0
H       14.61405599       7.13800201       8.47661577  F        0
H       15.75671561       9.37610020      -2.09181162  F        0
H       13.50975252       0.52161770      -2.09871590  F        0
H        5.62509051       0.52255101      -2.09707450  F        0
H        6.67730558       3.15591219      -5.64675051  F        0
H       12.44565577       3.15588527      -5.64616185  F        0
H       15.92661844       4.15901570      -4.70770176  F        0
H        3.91490408       3.97370239      -2.09385012  F        0
H       11.31595404       9.37380971      -3.78414466  F        0
H        6.99637682       6.62282801      -3.78455725  F        0
H       14.25080708       7.13791561      -5.64139813  F        0
Fe      11.52060707       5.68949624       1.54852332  T        0
Fe       9.67549751       7.98661988       2.78286089  T        1
O        9.54360741       6.45574056       1.50423355  T        2
O       10.62773162       7.34267857       0.95242273  T        3
