135
Lattice="20.102 0.0 0.0 0.0 19.731 0.0 0.0 0.0 13.253" Properties=species:S:1:pos:R:3:move_mask:L:1:tags:I:1 i=77 E=-3472.0240129048 regions="_JSON [\"Active\"]" n_terminators=32 energy=-909.1678211669828 pbc="F F F"
O       11.80565728      16.87409010       4.83337454  T        0
O       11.85648855      12.74955277       4.74103453  T        0
O        3.20117826      18.64122580       6.12712875  T        0
O        6.04132820      18.85822896      10.97251050  T        0
O        7.07754154      10.65488185      11.07567704  T        0
O       17.08101448      10.68327855       8.98606356  T        0
O       16.26444378      18.97263003       8.83780899  T        0
O        3.62342723      12.06148404       8.07868424  T        0
O        3.87738119      17.10183764       8.13766697  T        0
O       14.35327737      17.32847873      11.97411051  T        0
O       14.17096299      11.95631930      11.93042360  T        0
O        5.72410582      18.77647244       7.06118013  T        0
O       16.11150695      19.05280808      13.13036554  T        0
O       16.15372349      10.64969806      13.25380974  T        0
O        3.75786749      19.71098479       8.55481837  T        0
O       14.26053020      19.87687854      11.27694382  T        0
O       14.74087805       9.30085143      11.45298994  T        0
O        7.42575323      12.20198771       8.03480077  T        0
O        7.91630390      17.32850639       7.46911002  T        0
O        7.64394675      19.05920716       5.36232177  T        0
O       11.93375327      10.60963285       9.43373531  T        0
O       11.54163488      18.95602892       9.27691120  T        0
O       16.33735203      17.35516707       4.80848289  T        0
O       16.23083866      12.55753390       4.47599754  T        0
O        9.98637369      16.78362809       9.48987003  T        0
O        9.89565228      12.42330857       9.15091155  T        0
O        7.51153689      16.68501354      10.39060442  T        0
O        7.72175673      13.08700235      10.54545648  T        0
O       17.86056282      13.19231262       9.40599549  T        0
O       17.78406037      17.13723350       9.85881811  T        0
O        8.45976819      14.63048768       8.54957653  T        0
O        6.27272242      16.89275864      12.73316476  T        0
O        6.12179464      12.62835146      12.67374260  T        0
O       16.63241147      12.64843236       7.14491812  T        0
O       16.58419106      16.78314868       7.36792434  T        0
O        4.83726165      16.52681631      10.53531564  T        0
O        5.18956399      12.44625358      10.20458492  T        0
O       15.20922310      12.67291635       9.36394735  T        0
O       15.14334924      16.63631799       9.52366958  T        0
O       15.88151147      14.83169253       5.72982125  T        0
O       14.16666906      12.80495104       6.16679198  T        0
O       14.12940463      16.80004992       6.23425327  T        0
O       12.36099711      14.76979794       6.29296554  T        0
O       11.87392635      12.37789759       7.39593835  T        0
O       11.82750738      17.01773443       7.52723670  T        0
O        2.20521886      16.17584725      10.11353896  T        0
O        2.66833611      12.71664397      10.56203995  T        0
O       12.36243872      13.10008955       9.95057498  T        0
O       12.51712920      16.60340393      10.10907157  T        0
O        3.93374175      14.54917540       9.03369950  T        0
O       13.97995078      14.78339330      11.13001151  T        0
Si       4.16214778      18.57126999       7.45603343  T        0
Si      14.59115648      18.87094751      12.51147383  T        0
Si      14.65119078      10.53969329      12.55794362  T        0
Si       7.35196236      18.75040685       6.95529422  T        0
Al       8.38597987      16.33965885       8.77879311  T        0
Si       8.39584759      13.09743104       9.03516551  T        0
Si       6.14435674      17.25592377      11.14237257  T        0
Si       6.48737019      12.18949607      11.14700360  T        0
Si      16.64599992      12.26347960       8.74792056  T        0
Si      16.47253989      17.36368164       8.88914206  T        0
Si      15.73434228      13.20930545       5.90230876  T        0
Si      15.71871136      16.42743165       6.01989980  T        0
Si      12.58282313      13.16655554       6.15343968  T        0
Si      12.55011755      16.37611071       6.21150148  T        0
Si      11.48096076      12.11851916       8.95527395  T        0
Si      11.45847827      17.35833669       9.06821109  T        0
Si       3.70521912      16.11628593       9.42666462  T        0
Si       3.85485967      12.95573814       9.44195842  T        0
Al      14.08470577      13.04021189      10.59958159  T        0
Si      14.06960552      16.36035384      10.69592309  T        0
O        9.97029060      21.11627400       9.22329007  T        0
O        7.61351038      20.90768594      10.38863872  T        0
O       18.00439014      21.03732053       9.22859665  T        0
O        7.80653974      22.58420885       8.38534484  T        0
O        7.98100741      19.94183390       7.89030477  T        0
O        6.40700693      20.92058291      12.72820525  T        0
O       16.61291168      20.98055317       7.03858281  T        0
O        4.96253402      21.19301796      10.41386073  T        0
O       15.31461114      21.36750869       9.38468879  T        0
O       11.46677792      20.71494114       7.17421478  T        0
O        2.30989296      21.45504959       9.99599938  T        0
O       12.65893895      21.27598100       9.59600921  T        0
O        3.79512320      22.42552276       8.22766528  T        0
O       13.98641307      22.59242159      11.41181451  T        0
Si       8.34992834      21.12860144       8.94311006  T        0
Si       6.23406908      20.47579672      11.15374340  T        0
Si      16.53946398      20.57729421       8.63259532  T        0
Si      11.43512924      20.52620107       8.81444089  T        0
Si       3.76504574      21.17898001       9.28575878  T        0
Si      14.06615950      21.27200635      10.43919286  T        0
O       13.51262060      19.27557976      13.67679040  T        0
O       13.63654764      10.07436550      13.78442380  T        0
O        5.90905092      12.60208275      15.35258710  T        0
O        5.85195861      16.97576446      15.38181423  T        0
O        5.38892822      14.78132589      14.03009556  T        0
O        3.73219785      16.90971842      13.69249269  T        0
O        3.66252557      12.73470612      13.88364492  T        0
Si       5.27932545      16.38961311      13.96233661  T        0
Si       5.25305900      13.16076158      13.95877655  T        0
H       11.77741499      17.76721957       4.45015374  F        0
H       11.77741500      11.82883679       4.45015372  F        0
H        3.46536401      19.01504758       5.26900440  F        0
H        6.59189033       9.81912404      11.03827922  F        0
H       16.64303307       9.81912404       8.84117322  F        0
H        4.35449611      11.55048736       7.68308178  F        0
H       16.97340650      18.78964577      12.75613404  F        0
H       16.97340651      10.80641058      12.75613404  F        0
H       14.16364097       9.08086469      10.69751272  F        0
H        7.69777211      11.47779022       7.44841170  F        0
H        8.50665683      19.01129957       4.91774358  F        0
H       11.52310774       9.76092419       9.21110646  F        0
H       15.87290964      17.87210703       4.12309272  F        0
H       15.87290964      11.72394929       4.12309273  F        0
H       18.05303808      13.25020103      10.35989921  F        0
H       18.05303809      16.34585533      10.35989921  F        0
H        1.73086688      16.98843832      10.35624453  F        0
H        1.73086689      12.60761804      10.35624453  F        0
H       18.28958667      21.16688107      10.15436837  F        0
H        7.84356087      22.87259074       7.45668424  F        0
H        6.01931354      20.68412461      13.59787507  F        0
H       16.07044730      20.68412712       6.28158542  F        0
H       12.20788616      20.61981982       6.55602502  F        0
H        1.92726146      20.79864952      10.59110356  F        0
H        4.51576461      22.82060840       7.71911054  F        0
H       14.56690736      22.82060840      12.16034191  F        0
H       13.51650675      19.01504758      14.61047976  F        0
H       13.51650676      10.58100877      14.61047976  F        0
H        5.82176689      11.72394931      15.75639142  F        0
H        5.82176689      17.87210706      15.75639142  F        0
H        2.98936131      16.34896307      13.39901228  F        0
H        2.98936131      13.24709329      13.39901228  F        0
Fe      11.77339023      14.65323080      11.12164781  T        0
Fe       9.12983141      16.12226776      11.42191907  T        1
O       10.44702110      15.21699238      12.24899858  T        2
