136
Lattice="24.397 0.0 0.0 0.0 24.397 0.0 0.0 0.0 24.397" Properties=species:S:1:pos:R:3:move_mask:L:1:tags:I:1 i=41 E=-6943.8331748197 regions="_JSON [\"Active\"]" n_terminators=30 energy=-929.5910447370012 pbc="F F F"
O        9.43232719      14.75753744       0.07706926  T        0
O       14.99986001      20.91288171       6.10448512  T        0
O       12.16575420      15.56312519       8.83456143  T        0
O        9.37791285      18.28127153       3.46748807  T        0
O       18.25263027      14.79096331       8.85131320  T        0
O        8.77925778      15.83458997      12.52510156  T        0
O       18.32502959      21.01350685       2.63788416  T        0
O       14.78144600      21.71385921      12.35572733  T        0
O        9.61529072      12.03543026       2.68425770  T        0
O       21.06854259      14.68756971       5.92806911  T        0
O       15.60540325      11.88766193       8.59926877  T        0
O        5.77890553      21.72022480       3.64811339  T        0
O        9.50861087      15.62890135       6.11345697  T        0
O       14.85465726      18.26646519       8.77095806  T        0
O       12.18610936      21.01305322       3.38139051  T        0
O       15.65734390      21.02909277      -0.03536257  T        0
O       21.09221413      18.07738057       2.44289158  T        0
O        5.82969628      15.77932256       9.50847847  T        0
O       11.40937290      13.70157969       1.60055576  T        0
O       12.95221771      19.68285889       7.61351852  T        0
O       10.54805319      17.40676647       7.79031893  T        0
O       10.56852342      19.90588959       5.20915248  T        0
O        7.64298526      22.81261153       5.24577927  T        0
O       18.96013212      16.50282075       1.70340510  T        0
O       16.70699369      19.13943162       1.58752067  T        0
O       12.98324716      22.78934010      10.68982121  T        0
O       11.42494474      16.78189713       4.71000244  T        0
O       13.81006678      19.18318785       4.47154535  T        0
O       13.81930745      16.57352524       7.00723038  T        0
O       18.97782295      13.84950252       4.34475276  T        0
O       16.61983714      13.78755146       6.96300928  T        0
O        7.67060508      17.37823129      10.62220784  T        0
O       12.17303286      12.10349844       3.66164926  T        0
O       12.22752633      21.82273465       5.93138588  T        0
O       12.31246605      18.10118185       9.65099656  T        0
O        8.72185081      18.23758948       6.07771536  T        0
O        6.08927537      20.78388116       6.18344400  T        0
O       18.56686108      18.43517485       3.37041013  T        0
O       12.22608193      20.72964528      12.29879561  T        0
O       12.04296365      14.73803148       6.29887226  T        0
O       12.14642442      18.46809743       2.56053062  T        0
O       15.62753458      18.29248985       6.15581763  T        0
O       18.50439028      15.53055857       6.25292361  T        0
O       14.65913510      12.15551012       6.06213670  T        0
O        6.10679924      18.36141406       8.63751025  T        0
O        9.64615322      18.39371048      12.16911872  T        0
O       10.59378165      16.21416270       1.88609588  T        0
O       13.80120494      22.50621227       8.17598103  T        0
O       10.21854110      16.59916141      10.37130033  T        0
O        7.94589698      20.27843942       4.49824115  T        0
O       10.16695238      22.49236785       4.39529120  T        0
O       16.46229464      19.82969570       4.14773688  T        0
O       10.61567170      14.13616326       4.14653009  T        0
O        7.95159332      16.62090532       8.06740707  T        0
O       13.76676527      20.24086182      10.26068630  T        0
O       14.19959581      20.01304006       1.88439009  T        0
O       20.05218788      16.35787496       4.18424840  T        0
O       16.43232947      16.33914088       7.75702547  T        0
O       14.10157257      13.98710924       7.83085783  T        0
Si      10.87463567      15.06401955       0.82546651  T        0
Al      13.53336869      21.34311477       6.95594391  T        0
Si      11.30280105      16.91239594       9.20394174  T        0
Si       9.09925722      19.16337359       4.76748307  T        0
Si       9.00730365      23.58124842       4.75784854  T        0
Si      17.51890472      19.60011637       2.93032179  T        0
Si      10.94893339      12.97957028       2.99405792  T        0
Si       6.84592819      21.42756442       4.88014557  T        0
Si       9.12933872      16.96234725       6.99612746  T        0
Si      13.47372110      19.12142228       9.10728915  T        0
Si      11.30232079      21.36884372       4.72486839  T        0
Si      15.35953620      19.63514660       0.79687536  T        0
Si      19.68532721      17.34231705       2.91886819  T        0
Si      13.44512664      21.39864269      11.41608797  T        0
Si      10.89550220      15.28919132       5.26932753  T        0
Si      13.07301795      19.67336402       3.01352408  T        0
Si      15.22741095      17.38234874       7.43828185  T        0
Si      19.65989175      15.10759236       5.17018951  T        0
Si      15.27908700      12.93250703       7.36397424  T        0
Si       6.86576750      17.03734647       9.23150438  T        0
Si      13.52136297      23.56561115       9.32905420  T        0
Si      17.46507506      15.10963787       7.43601537  T        0
Si      15.27053758      19.60644692       5.22991751  T        0
Al      10.84951769      17.43724181       3.04594331  T        0
Si      13.04337512      15.17219604       7.49956857  T        0
Si       9.05343959      17.05096939      11.44260460  T        0
O       14.96135941      24.31724551       9.64076005  T        0
O        8.71548981      24.39060968       3.34825181  T        0
O       11.95540225      27.19179245       9.78389617  T        0
O        8.59023222      27.15778181       6.27093202  T        0
O        7.76264730      25.07605892       7.85925098  T        0
O       10.40416106      25.04065095      10.51367797  T        0
O        9.46231753      24.60299706       5.94699387  T        0
O       12.38603241      24.66834427       8.90016760  T        0
O       10.27682169      26.12385044       8.02736550  T        0
Si       9.02566833      25.75029087       7.03220251  T        0
Si      11.26070384      25.76447878       9.30091241  T        0
O       15.79386096      18.13783622      -2.76573479  T        0
O       12.44562971      14.60638137      -2.80153563  T        0
O       13.99390184      13.88574219      -0.64424173  T        0
O       16.62469991      16.53960249      -0.69426197  T        0
O       12.00789818      15.49231762      -0.27918957  T        0
O       14.90521351      18.43735268      -0.21345941  T        0
O       14.11312421      16.36704940      -1.74392430  T        0
Si      15.36182373      17.36315026      -1.36330706  T        0
Si      13.13594621      15.09428818      -1.37420280  T        0
H        9.33842072      14.01041471      -0.52721165  F        0
H       18.82464116      14.01032609       8.95915608  F        0
H        7.91113188      15.43760522      12.72548646  F        0
H       18.82463422      21.15752504       1.81198193  F        0
H       15.05831113      22.58477454      12.72545718  F        0
H        9.33842236      11.67127896       1.81195952  F        0
H       21.15748967      14.01033142       6.62630180  F        0
H       16.48560162      11.67124930       8.95913012  F        0
H        5.57209901      22.58475209       3.23920925  F        0
H       16.48550522      21.15749796      -0.52720744  F        0
H       21.15752488      18.82463433       1.81198193  F        0
H        5.57209270      15.43757920      10.38640946  F        0
H       19.36968736      15.74261425       1.27081564  F        0
H       19.36964492      13.46921022       3.54427665  F        0
H       12.70105063      11.39908942       3.24464026  F        0
H        5.29989873      21.15211322       6.60185973  F        0
H       11.69568311      21.15209404      12.99764665  F        0
H       15.05289047      11.39908635       5.59653152  F        0
H        5.29988995      18.80021948       8.95372148  F        0
H        9.34384310      18.80020308      12.99764968  F        0
H       15.05833777      24.92410159      10.38638741  F        0
H        7.91116176      24.92409770       3.23921137  F        0
H       12.72548244      27.25695525      10.38641913  F        0
H        7.91116071      27.25697428       5.57209299  F        0
H        7.37002870      25.46913506       8.65411313  F        0
H        9.64346070      25.46909440      10.92752848  F        0
H       16.48557283      18.82464187      -2.86023677  F        0
H       11.67125080      14.01031642      -2.86021769  F        0
H       14.75327284      13.46920706      -1.07235664  F        0
H       17.02670505      15.74262218      -1.07239731  F        0
Fe      12.17271251      18.38653559       6.01156141  T        1
