136
Lattice="19.123 0.0 0.0 0.0 14.277 0.0 0.0 0.0 7.5465" Properties=species:S:1:pos:R:3:move_mask:L:1:tags:I:1 i=128 E=-2603.9155142701 regions="_JSON [\"Active\"]" n_terminators=30 energy=-927.4942484211866 pbc="F F F"
O        5.79771703       1.29183317       1.96385571  T        0
O        3.44382862       8.73897571       5.52252024  T        0
O        6.29031642      13.21772838       1.63664993  T        0
O        3.26061587       5.80891177       5.75732119  T        0
O        3.41266772       6.05110403       1.93242950  T        0
O        6.32672080      13.22699931       5.87377625  T        0
O        3.55370278       8.69836467       1.93356010  T        0
O        5.97997786       1.27647926       5.59938712  T        0
O        7.64908408       3.46931825       2.43526803  T        0
O       11.70683472       3.24193045       2.54139443  T        0
O        2.10367794      11.08025844       6.08143477  T        0
O        7.24940756      10.82446750       2.46084711  T        0
O        1.97018988       3.43536480       6.21961257  T        0
O        2.40035589       3.63189756       1.18558231  T        0
O        7.39372637      10.87394709       5.12067693  T        0
O       12.19764842       3.98240143       5.16892205  T        0
O        2.00294880      10.87660476       1.46222116  T        0
O        7.18488423       3.67788036       5.05552255  T        0
O        6.27942686       3.18341926      -0.17519948  T        0
O        3.20428960      10.67294928       3.74334943  T        0
O        6.82789578      11.20235302      -0.08131915  T        0
O        2.76513103       4.15526065       3.76595228  T        0
O        4.92509371       3.97722528       2.34128123  T        0
O        4.78390608      11.02896890       5.84648059  T        0
O        4.69954214      11.05932224       1.56697628  T        0
O        4.64488853       3.59533838       5.55585373  T        0
O        2.08641466       1.29839918      -0.03843597  T        0
O        7.62156271       8.56187463       3.84019909  T        0
O       11.78619630       5.83402523       3.29027673  T        0
O        7.61078310       5.84806713       3.63370383  T        0
O       -0.00915715       3.06308468       0.23309506  T        0
O        9.61483479      10.41301395       3.60069011  T        0
O        9.73997655       4.19977205       4.03516531  T        0
O        3.73690945      -0.32332455       1.37182048  T        0
O        5.62111133       6.87209099       4.86629603  T        0
O        5.80286352       7.27255266       2.28164549  T        0
O        3.77173602      -0.10331335       6.22033452  T        0
O        4.84072728      -0.40069667       3.80284178  T        0
O        4.66356952       7.32680744      -0.09457726  T        0
Al       6.22829318       2.90916028       1.53818825  T        0
Si       3.38030032      10.33150392       5.34092838  T        0
Si       6.24178727      11.58110561       1.41363328  T        0
Si       3.07027076       4.27007399       5.38410415  T        0
Si       3.31770882       4.43308907       2.23552528  T        0
Si       6.28971990      11.58950497       6.11390145  T        0
Si       3.37204494      10.31518801       2.17071411  T        0
Si       6.08337709       2.83979373       6.00593298  T        0
Si       1.60000460       2.86125908      -0.04742777  T        0
Si       7.99731067      10.18551624       3.76873162  T        0
Si      11.38308769       4.30318184       3.76545467  T        0
Si       8.13692585       4.24799388       3.74064127  T        0
Si       5.16216503      -0.15523938       2.19100125  T        0
Al       4.20205292       7.27296181       6.01772462  T        0
Si       4.34327408       7.34538255       1.50048600  T        0
Si       5.17605003      -0.15325546       5.37663559  T        0
Si       2.89447295      -0.13384508      -0.02376660  T        0
Si       6.70452880       7.25149494       3.65589894  T        0
O        6.03822102       1.25196984       9.50522042  T        0
O        3.53044207       5.94626806       9.68481394  T        0
O        3.74681895       8.56922123      10.00724238  T        0
O        7.54796423       3.42153259       9.98836009  T        0
O        2.30688793       3.70700124       8.84254473  T        0
O        6.40192264       3.05391093       7.58215208  T        0
O        6.82589354      11.22781741       7.62738389  T        0
O        2.78730977       3.95609595      11.38345675  T        0
O        4.85722044       3.64723524       9.67809214  T        0
O        2.06126053       1.28905632       7.74649367  T        0
O       -0.07815952       2.97954452       7.97112323  T        0
O        3.92418641      -0.29845297       8.87150708  T        0
O        5.98790120       7.03396582       9.84354650  T        0
O        4.59476619      -0.05976875      11.38644809  T        0
O        4.63688355       7.38271137       7.68042140  T        0
Si       6.20138685       2.85831514       9.22702696  T        0
Si       3.38530075       4.33760273       9.89835873  T        0
Si       1.53261691       2.83625773       7.70164628  T        0
Si       5.22032129      -0.13069943       9.85952738  T        0
Si       4.45226364       7.25783531       9.26523090  T        0
Si       2.89401821      -0.10953222       7.61226639  T        0
O        3.16753979       8.42171721      -2.06399523  T        0
O        3.46772678       5.82238378      -1.92942592  T        0
O        6.06303591       1.22822552      -2.01829228  T        0
O        7.55186934       3.48458184      -5.34094219  T        0
O        2.10864455       3.58050494      -1.43028072  T        0
O        7.33710624       3.49492055      -2.63981801  T        0
O        2.65327689       4.19230348      -3.91409457  T        0
O        4.68891595       3.48214083      -2.30508232  T        0
O        7.76209819       8.39775227      -3.84945642  T        0
O        7.28774343       5.80541846      -3.97288779  T        0
O        9.58426844       4.49480937      -3.88116216  T        0
O        5.59930332       7.34120806      -2.58896488  T        0
O        5.68066809       7.56683084      -5.29632113  T        0
O        3.92090766      -0.22781566      -1.30208161  T        0
O        4.55586747      -0.03868784      -3.86114532  T        0
Si       3.26122186       4.25780106      -2.38168598  T        0
Si       6.10949288       2.85235574      -1.74372517  T        0
Si       7.95165491       4.29488332      -3.93883969  T        0
Si       4.24629473       7.22949767      -1.68029800  T        0
Si       5.19483395      -0.12558040      -2.33202630  T        0
Si       6.56331027       7.26954828      -3.92324041  T        0
O        6.27946157      -1.38629586       9.70284762  T        0
O        1.72188826      -1.26306442       7.59160096  T        0
O        6.26333658      -1.27134681       1.65552675  T        0
O        6.19666550      -1.28771499       6.00626012  T        0
O        1.70343748      -1.27058682      -0.13414212  T        0
O        6.20039630      -1.43157423      -2.23868109  T        0
H        5.61112307      13.75835362       2.07975607  F        0
H        5.62495998      13.75277707       5.44935724  F        0
H       12.44565577       3.15588527       1.90033815  F        0
H        1.83343022      11.12554006       7.01950242  F        0
H       12.44354748       3.15657450       5.63339447  F        0
H        1.83154049      11.12909684       0.54034962  F        0
H        6.36236324      11.29726414      -0.93275871  F        0
H       12.12599848       6.62134464       3.76259695  F        0
H       -0.96435880       2.93479999       0.00082830  F        0
H       10.52611047      10.07370688       3.76203277  F        0
H        3.36626427       9.38386245       9.62662257  F        0
H        7.72835374       3.98992704      10.77074871  F        0
H        6.35946036      11.30224636       8.48133548  F        0
H        3.19279804       4.15795734      12.24400931  F        0
H       -0.96435880       2.93479999       7.54732830  F        0
H        6.24001829       7.13882896      10.76907540  F        0
H        5.05805767      -0.00063749      12.24294516  F        0
H        3.36611374       9.37433505      -2.09115109  F        0
H        6.67730558       3.15591219      -5.64675051  F        0
H        3.20026696       4.16316078      -4.71757657  F        0
H        7.80714812       9.37398274      -3.78410482  F        0
H       10.52510559       4.20251023      -3.78397245  F        0
H        4.87243006       7.14046961      -5.64294599  F        0
H        5.04790665       0.00049463      -4.70488864  F        0
H        6.19238160      -2.23894396       9.23402325  F        0
H        1.75289949      -2.23551612       7.54748495  F        0
H        6.19238160      -2.23894396       1.68752325  F        0
H        6.19792725      -2.24787639       5.84372079  F        0
H        1.75289949      -2.23551612       0.00098495  F        0
H        6.19792725      -2.24787639      -1.70277921  F        0
Fe       5.44013551       4.95079481       4.07496414  T        1
