154
Lattice="24.397 0.0 0.0 0.0 24.397 0.0 0.0 0.0 24.397" Properties=species:S:1:pos:R:3:move_mask:L:1:tags:I:1 i=41 E=-6943.8331748197 regions="_JSON [\"Active\"]" n_terminators=30 energy=-1071.4123460669289 pbc="F F F"
O       21.53162067       2.52798500      -0.05835092  T        0
O       21.76696379       5.97508319       3.68718537  T        0
O       20.98323745      12.57798844       3.65120096  T        0
O       20.99611892       3.62231207      12.58103765  T        0
O       21.74058527      -0.05578411       2.65163285  T        0
O       17.92308610       9.52175791       3.65717542  T        0
O       21.67640988       3.55901704       5.69462253  T        0
O       17.71648864       3.91666895       9.69388319  T        0
O       23.61022874       1.61861442       1.73174349  T        0
O       22.69326581       5.02016270       7.88456064  T        0
O       22.57866804       7.96135107       5.22378644  T        0
O       19.94744474      10.58127202       5.09327411  T        0
O       23.84069820       4.33043842       4.38660638  T        0
O       19.95460823       5.08722430      10.61086410  T        0
O       20.73869126       6.16293644       6.09149370  T        0
O       18.34910800       8.69966828       6.20409850  T        0
O       21.84839210      12.16623099       6.20870718  T        0
O       20.92280337      -0.05157278       0.05702258  T        0
O       24.23623154       2.59045382       6.41263656  T        0
O       24.27389388       6.28251647       2.59405339  T        0
O       18.40456061       6.31024046       8.77644256  T        0
O       21.88304099       6.17659530      12.19559513  T        0
O       22.47508284       4.16696287       2.12537142  T        0
O       22.56108760       4.36619709      10.49729733  T        0
O       20.05926223       8.02694416       4.31204401  T        0
O       22.55692656      10.48963338       4.38473358  T        0
O       22.75071414       1.84149329       4.23171647  T        0
O       19.90535938       4.24467246       8.07060581  T        0
Al      22.99908154       2.96285390       0.79816634  T        0
Si      23.53044504       4.75022546       9.23212197  T        0
Si      21.25582167       7.06236624       4.88963610  T        0
Si      21.30722396      11.45984885       4.82733210  T        0
Si      23.13837332       0.76218633       2.98952219  T        0
Si      19.05432702       9.22919560       4.82468953  T        0
Al      21.19695313       4.78386671       7.04531672  T        0
Si      23.51799820       9.23085396       4.79399747  T        0
Si      23.22297934       3.06191897       5.26830720  T        0
Si      19.01339678       4.86249020       9.27211569  T        0
Si      23.18823440       5.25541287       3.17129111  T        0
Si      21.31724521       4.81085431      11.46834664  T        0
O       27.00988627       8.66776582       6.14630066  T        0
O       24.54931167       3.47214541       8.93268388  T        0
O       30.82716006       8.56467380       2.68549818  T        0
O       26.96100186       6.08916188       8.68750728  T        0
O       24.42497669       8.78772394       3.48995288  T        0
O       27.91886250       8.90498417       0.06617075  T        0
O       25.23217877       8.05562396       8.06724312  T        0
O       28.80587069       7.01733898       1.77387808  T        0
O       26.24720122       6.96352196       4.24393988  T        0
O       26.35155651       4.07703600       6.99974057  T        0
O       24.50048975       9.60131343       6.03882647  T        0
O       24.45739573       6.04953646       9.62453539  T        0
O       30.51549036       6.02927388       3.62653027  T        0
O       27.84630173       6.10944014       6.16976856  T        0
O       26.27958533      10.55077351       7.83702809  T        0
O       28.78490507       7.82147480       4.32457384  T        0
O       26.27865377       7.83648834      10.54818818  T        0
O       26.22627808       7.84295859       1.72278468  T        0
O       28.84920378       4.36459011       7.97953697  T        0
O       26.12247121       1.56896202       8.02037111  T        0
Si      25.74323355       9.21854334       7.03783469  T        0
Si      29.74724213       7.37274214       3.06933373  T        0
Si      25.71444808       7.01062853       9.24029835  T        0
Si      27.55206979       7.49147613       0.83217285  T        0
Si      25.31471654       7.49792938       3.02073266  T        0
Si      27.50536653       5.15859051       7.45700105  T        0
Si      27.48865074       7.39485373       5.23278622  T        0
Si      25.33473594       2.94940515       7.61011411  T        0
O       26.98409228      -0.03600990      -2.55605506  T        0
O       27.91055496       6.04557928      -2.81753193  T        0
O       24.43044046       2.57358113      -2.63980709  T        0
O       30.84429066       3.40967520      -2.46597486  T        0
O       26.24924699       1.87203681      -0.82343053  T        0
O       28.83853604       4.34926469      -0.93459156  T        0
O       30.51918565       2.47082136       0.06484832  T        0
O       27.22354123       6.29145215      -0.20883020  T        0
O       24.46328298       0.03199542      -3.47318123  T        0
O       28.77667010       1.78495771      -1.72209009  T        0
O       26.25924726       4.34066948      -1.78116780  T        0
Si      27.46626871       0.88920067      -1.28640099  T        0
Si      27.55186311       5.24440066      -1.42054271  T        0
Si      25.27746589       3.10204804      -1.33006581  T        0
Si      29.75095108       3.03007312      -1.28009117  T        0
O       24.46322700      -2.73878065       2.61721419  T        0
O       26.97410036      -2.60570507       0.01527980  T        0
O       26.33998346      -0.90190044       1.99360745  T        0
O       24.47547512      -3.54539866       0.06505231  T        0
O       26.15281670      -1.94655626       4.48751298  T        0
O       28.84542200      -1.88341895       1.73846121  T        0
Si      25.32626013      -1.45147463       3.15334024  T        0
Si      27.50967750      -1.35482679       0.93215625  T        0
O       25.23896772      -1.99171840      -1.94971331  T        0
O       27.85670051      -0.08035604      -0.02579308  T        0
O       26.27450114      -1.74230780      -4.43754157  T        0
O       26.27233818      -4.48206593      -1.71917937  T        0
Si      25.73298276      -3.15300120      -0.90879059  T        0
Si      25.72569617      -0.93554715      -3.10853665  T        0
O       18.19885661       2.59914284      -3.45473079  T        0
O       21.02445958       2.52931837      -6.52230574  T        0
O       20.09867796       1.01691073      -4.55625969  T        0
O       22.46288988       0.86535161      -1.94508059  T        0
O       24.28231642       3.59969732      -0.16708277  T        0
O       18.16806925      -0.16003999      -3.46127040  T        0
O       22.00473272       0.00223202      -6.21270227  T        0
O       19.84891141       1.36526294      -1.87670059  T        0
O       22.66464036       1.76879249      -4.46103068  T        0
Si      19.07643207       1.20360114      -3.30204524  T        0
Si      21.42744999       1.33691785      -5.44147737  T        0
Si      23.50503793       1.31413076      -3.12444462  T        0
Si      21.20084762       1.21548285      -0.95162052  T        0
O       17.87857955      -3.45073346       2.37201636  T        0
O       20.96804119      -6.51425814       2.41067523  T        0
O       22.58159761      -1.90043220       0.92293109  T        0
O       19.95614054      -4.47209766       1.00501930  T        0
O       24.29579234      -0.23754858       3.55959549  T        0
O       18.35747784      -2.58510904      -0.13824716  T        0
O       21.84116604      -6.05816531      -0.12466190  T        0
O       20.02648161      -1.90434420       1.75060947  T        0
O       22.56074038      -4.42438777       1.74568379  T        0
Si      21.30692855      -0.96641295       1.33603429  T        0
Si      21.30726140      -5.36764261       1.26715030  T        0
Si      23.52657879      -3.16495833       1.33500706  T        0
Si      19.05254315      -3.12482356       1.25316145  T        0
H       20.10951523      12.72546585       3.23923157  F        0
H       20.10951519       3.23923103      12.72546793  F        0
H       17.77043279      10.38640226       3.23924444  F        0
H       17.77043311       3.23924387      10.38640412  F        0
H       17.49826767       8.95372279       6.60186186  F        0
H       21.54216027      12.99764967       6.60187561  F        0
H       17.49826771       6.60186080       8.95372435  F        0
H       21.54216028       6.60187434      12.99765198  F        0
H       31.02329611       8.95915360       1.81197192  F        0
H       28.68412771       8.95914275      -0.52719976  F        0
H       31.29548824       5.59652281       3.24465287  F        0
H       25.88537327      10.95404844       8.63278900  F        0
H       25.88537328       8.63278754      10.95405052  F        0
H       29.25185918       3.56561063       7.58759619  F        0
H       26.93058086       1.24433163       7.58757011  F        0
H       28.68420928       6.62630035      -2.86021198  F        0
H       31.02330028       4.28720931      -2.86021198  F        0
H       31.29540115       2.85451753       0.50251718  F        0
H       26.93057847      -1.48866524       4.85486109  F        0
H       29.25186006      -1.48866523       2.53357887  F        0
H       25.88539893      -2.53384478      -4.85512307  F        0
H       25.88539892      -4.85512641      -2.53384082  F        0
H       17.77043356       2.85994955      -4.28747201  F        0
H       20.10952426       2.85994950      -6.62656333  F        0
H       17.49833355      -0.50278089      -2.85477948  F        0
H       21.54221652      -0.50278066      -6.89866328  F        0
H       17.77043326      -4.28747560       2.85995000  F        0
H       20.10952426      -6.62656664       2.85995001  F        0
H       17.49833238      -2.85478383      -0.50277915  F        0
H       21.54221602      -6.89866750      -0.50277915  F        0
Fe      21.22262181       3.64498027       3.69091862  T        1
