142
Lattice="20.102 0.0 0.0 0.0 19.731 0.0 0.0 0.0 13.253" Properties=species:S:1:pos:R:3:move_mask:L:1:tags:I:1 i=77 E=-3472.0240129048 regions="_JSON [\"Active\"]" n_terminators=34 energy=-951.645758634472 pbc="F F F"
O       11.80278339      16.87683427       4.83975902  T        0
O       11.87085627      12.75143619       4.73077410  T        0
O        3.21660510      18.61100560       6.11822361  T        0
O        6.01446886      18.86755623      10.98535839  T        0
O        7.08109236      10.64958235      11.10762866  T        0
O       17.08948719      10.68132218       8.97144291  T        0
O       16.27461700      18.96028387       8.81739726  T        0
O        3.62202506      12.05310761       8.08611847  T        0
O        3.85659106      17.08229776       8.14114424  T        0
O       14.38595969      17.31101040      11.98621132  T        0
O       14.14834804      11.95368381      11.93092345  T        0
O        5.73770272      18.71481531       7.07213853  T        0
O       16.12951704      19.10653367      13.11373464  T        0
O       16.14868971      10.66670118      13.25055223  T        0
O        3.77661200      19.69456928       8.54398268  T        0
O       14.12854698      19.86870599      11.41556432  T        0
O       14.74355334       9.30576366      11.44989475  T        0
O        7.42502805      12.18862449       8.05069146  T        0
O        7.97674232      17.34094297       7.49258855  T        0
O        7.64399839      19.03241675       5.36420566  T        0
O       11.92886115      10.61323055       9.43133834  T        0
O       11.50813022      18.94178908       9.27776177  T        0
O       16.33959410      17.37119054       4.81868238  T        0
O       16.23108355      12.55633408       4.47694677  T        0
O       10.02443768      16.71894464       9.52112363  T        0
O        9.89787653      12.43734776       9.15166190  T        0
O        7.53249381      16.72792535      10.40191601  T        0
O        7.71990933      13.07811766      10.55593909  T        0
O       17.86602251      13.19203759       9.40494039  T        0
O       17.80296933      17.13451428       9.84574255  T        0
O        8.43758114      14.62711760       8.55945612  T        0
O        6.27630405      16.89465128      12.73348025  T        0
O        6.11797475      12.63134333      12.68283212  T        0
O       16.63530819      12.65998810       7.14609228  T        0
O       16.59131071      16.76567078       7.36448005  T        0
O        4.85847228      16.51554562      10.52372342  T        0
O        5.19028004      12.42694524      10.21356019  T        0
O       15.21668063      12.66134494       9.37050446  T        0
O       15.16383155      16.62784406       9.52959740  T        0
O       15.87589175      14.83249996       5.71268640  T        0
O       14.16931663      12.80466673       6.17615835  T        0
O       14.13144174      16.80145773       6.23484704  T        0
O       12.36445002      14.76802228       6.29139930  T        0
O       11.86523325      12.37232298       7.38412662  T        0
O       11.83364586      17.00755717       7.53411081  T        0
O        2.21817071      16.17332753      10.15043390  T        0
O        2.66856041      12.69646610      10.57069336  T        0
O       12.36965978      13.10798579       9.92833152  T        0
O       12.54563107      16.61090668      10.11381965  T        0
O        3.92997732      14.53573720       9.05038062  T        0
O       13.98870333      14.77696105      11.12441673  T        0
Si       4.16870579      18.54304480       7.45334667  T        0
Si      14.59270370      18.83105417      12.58407087  T        0
Si      14.64623034      10.54171900      12.55755635  T        0
Si       7.36481304      18.73674283       6.96147307  T        0
Al       8.40771464      16.33147408       8.79940202  T        0
Si       8.38935677      13.09377918       9.04645052  T        0
Si       6.14306459      17.26691922      11.14475854  T        0
Si       6.48708591      12.18179648      11.16113432  T        0
Si      16.65233221      12.26258206       8.74602292  T        0
Si      16.48674073      17.35291461       8.88268994  T        0
Si      15.73466174      13.21066220       5.90148616  T        0
Si      15.71984187      16.42571274       6.01694063  T        0
Si      12.58536495      13.16471766       6.14990909  T        0
Si      12.55284900      16.37400787       6.21195617  T        0
Si      11.47760426      12.11904115       8.94585845  T        0
Si      11.47265328      17.34365521       9.07547959  T        0
Si       3.70513979      16.10382600       9.43695735  T        0
Si       3.85616819      12.94063655       9.45292878  T        0
Al      14.08712586      13.03577605      10.59849356  T        0
Si      14.09337875      16.35291126      10.70416621  T        0
O       14.01782190      20.73236771      15.98054268  T        0
O        9.95720660      21.11004990       9.22316099  T        0
O        7.59997646      20.90684719      10.38675549  T        0
O       17.97740668      21.05420123       9.23368623  T        0
O        7.80707308      22.59448643       8.38855816  T        0
O        7.95797605      19.95962182       7.87893445  T        0
O        6.38109081      20.94229942      12.72329960  T        0
O       16.49256274      21.04738964       7.08651182  T        0
O        4.95083873      21.20143565      10.40110313  T        0
O       15.30080488      21.29986501       9.50620455  T        0
O       11.47463130      20.71637727       7.18435357  T        0
O        2.29622669      21.43149711       9.96249682  T        0
O       12.63736014      21.25009608       9.62997059  T        0
O        3.78591470      22.39927650       8.19225634  T        0
O       13.92745722      22.57280244      11.46908583  T        0
Si       8.33747616      21.13283273       8.94208520  T        0
Si       6.21690852      20.48551260      11.15191774  T        0
Si      16.50721196      20.57481598       8.66354090  T        0
Si      11.42118732      20.51565497       8.82144157  T        0
Si       3.75999289      21.16584994       9.26612492  T        0
Si      14.01670333      21.23538668      10.51541713  T        0
O       12.08707748      18.75071620      15.95101329  T        0
O       13.66882862      19.03696842      13.90581923  T        0
O       13.63816812      10.07064507      13.78684162  T        0
O       14.64734409      18.18075231      16.33814093  T        0
O        5.90049893      12.60790354      15.36448280  T        0
O        5.85408169      16.97699607      15.38057087  T        0
O        5.39109605      14.78410987      14.03464215  T        0
O        3.73506561      16.91089595      13.68388193  T        0
O        3.65932299      12.74183176      13.89516269  T        0
Si      13.61823543      19.18902254      15.54075994  T        0
Si       5.28007939      16.39053030      13.96255941  T        0
Si       5.25095493      13.16375243      13.96703558  T        0
H       11.77741499      17.76721957       4.45015374  F        0
H       11.77741500      11.82883679       4.45015372  F        0
H        3.46536401      19.01504758       5.26900440  F        0
H        6.59189033       9.81912404      11.03827922  F        0
H       16.64303307       9.81912404       8.84117322  F        0
H        4.35449611      11.55048736       7.68308178  F        0
H       16.97340650      18.78964577      12.75613404  F        0
H       16.97340651      10.80641058      12.75613404  F        0
H       14.16364097       9.08086469      10.69751272  F        0
H        7.69777211      11.47779022       7.44841170  F        0
H        8.50665683      19.01129957       4.91774358  F        0
H       11.52310774       9.76092419       9.21110646  F        0
H       15.87290964      17.87210703       4.12309272  F        0
H       15.87290964      11.72394929       4.12309273  F        0
H       18.05303808      13.25020103      10.35989921  F        0
H       18.05303809      16.34585533      10.35989921  F        0
H        1.73086688      16.98843832      10.35624453  F        0
H        1.73086689      12.60761804      10.35624453  F        0
H       13.65226955      21.53630200      15.57301841  F        0
H       18.28958667      21.16688107      10.15436837  F        0
H        7.84356087      22.87259074       7.45668424  F        0
H        6.01931354      20.68412461      13.59787507  F        0
H       16.07044730      20.68412712       6.28158542  F        0
H       12.20788616      20.61981982       6.55602502  F        0
H        1.92726146      20.79864952      10.59110356  F        0
H        4.51576461      22.82060840       7.71911054  F        0
H       14.56690736      22.82060840      12.16034191  F        0
H       11.86384156      18.29482316      16.78088422  F        0
H       13.51650676      10.58100877      14.61047976  F        0
H       15.58095514      18.39037197      16.50370227  F        0
H        5.82176689      11.72394931      15.75639142  F        0
H        5.82176689      17.87210706      15.75639142  F        0
H        2.98936131      16.34896307      13.39901228  F        0
H        2.98936131      13.24709329      13.39901228  F        0
Fe       9.12681859      16.20307625      11.47537033  T        0
Fe      11.76153302      14.65861263      11.07990103  T        1
O       10.79883807      15.77065358      12.51168826  T        2
O       10.02121777      14.51805917      12.14128364  T        3
