148
Lattice="20.102 0.0 0.0 0.0 19.731 0.0 0.0 0.0 13.253" Properties=species:S:1:pos:R:3:move_mask:L:1:tags:I:1 i=77 E=-3472.0240129048 regions="_JSON [\"Active\"]" n_terminators=36 energy=-989.5023676327702 pbc="F F F"
O       10.10853684       8.35667431       9.18025150  T        0
O        9.95679164      18.69798677       4.07212499  T        0
O       10.04479916      11.44857574       3.89990996  T        0
O        2.33896174      11.40462551       3.90845197  T        0
O        7.68860799       8.46681468      10.44883104  T        0
O       12.11673546      18.52411563       2.53691609  T        0
O       12.49760513      11.26352874       2.85512792  T        0
O        7.89475239       7.32122059       8.07689078  T        0
O       12.11030446      17.43218281       5.00938852  T        0
O       12.15321554      12.62606640       5.09418354  T        0
O        8.20370529       9.96955850       8.32267011  T        0
O       12.21762650      20.11933695       4.62441366  T        0
O       11.79139997       9.96583601       5.15209250  T        0
O        3.79147731      10.70113256       5.95920307  T        0
O        6.40064796       8.58231860      12.75496727  T        0
O       13.46835996      10.89291448       0.41467197  T        0
O        3.18580976       8.88170472       3.99172298  T        0
O        6.13836664      10.57794903      10.85373528  T        0
O       13.81498235       9.05636969       2.47193737  T        0
O        4.96172755      10.85023811       3.57096819  T        0
O        5.00617235       8.26406751      10.44070650  T        0
O        4.97139663      18.48861431       4.28352479  T        0
O       15.17578637      11.37795487       2.38586484  T        0
O        3.81143125      12.33763549       8.09078854  T        0
O        6.01601255      11.09412496       7.31831099  T        0
O        5.85212998      19.21864139       7.60950079  T        0
O       14.21454390       9.32695677       5.73594626  T        0
O        4.03121498       9.68515302       8.39693743  T        0
O        6.18710250      10.05418983       1.28294196  T        0
O        8.12931813      12.58394459       7.90599272  T        0
O        7.69454145      17.32970914       8.10325812  T        0
O       12.37729645       7.36422384       5.19458768  T        0
O        8.19814998      10.92942851       5.82536602  T        0
O        7.95996234      18.64128915       5.89414541  T        0
O       12.19695508       8.62540719       7.45198495  T        0
O        7.53883960      11.39004485       3.19651660  T        0
O        2.32201736       8.22936854       9.91754300  T        0
O        7.41419869      18.66821193       3.29905214  T        0
O       12.57210410       8.43525838      10.09977085  T        0
O        8.67292363       8.69679711       3.90255707  T        0
O       11.41301224      10.63964448       8.92690544  T        0
O       11.93032075      19.03103908       9.58709268  T        0
O        5.73022158      12.62554930       1.68523810  T        0
O        3.80067347       6.97188493       8.35713627  T        0
O        5.56352265      17.37374378       1.88971350  T        0
O        9.97605334      17.14816573       9.52844307  T        0
O       10.24087224      12.84449424       9.89019004  T        0
O       10.27632465       6.56756269       3.65119004  T        0
O        7.70453923      16.77926275      10.75042725  T        0
O        7.41423508      12.94179295      10.72439700  T        0
O       12.79314513       6.59211685       2.72485794  T        0
O        8.51246603      14.97330933       8.86237520  T        0
O       12.10898233       4.83271161       4.65130133  T        0
O        5.91212911      12.14240393      12.85929550  T        0
O       13.91915505       7.49936486       0.43722585  T        0
O        4.76476359      12.83721976      10.53804447  T        0
O       15.49355890       6.91455262       2.48604728  T        0
O        5.47002562      15.02159885       0.67050489  T        0
O        3.73751883      16.92484835      -0.08540455  T        0
O        5.95804914       6.57617871       6.33715595  T        0
O        3.84600906      13.02303426      -0.25474828  T        0
O       14.14454275      13.21928294       6.89363729  T        0
O       14.19525310      16.89352007       6.66284614  T        0
O        7.75420876       4.78776212       7.42366455  T        0
O       12.30323424      15.03194147       6.09395415  T        0
O        8.43690715       6.60832733       5.54882622  T        0
O       11.68503650      12.99714828       7.70709684  T        0
O       11.77605734      17.20407390       7.60489249  T        0
O        7.74168627       6.35053224       2.94644714  T        0
O        2.19295593      13.38804943       9.99707275  T        0
O       12.93777159      12.35617243      10.05623883  T        0
O       12.36483930      16.42978832      10.15917804  T        0
O        4.11390627      14.85796190       8.84078172  T        0
Si       8.48603593       8.52150869       9.01826646  T        0
Si      11.59503941      18.68577876       4.09073121  T        0
Si      11.65661893      11.32014173       4.24958432  T        0
Si       3.58656917      10.43829849       4.36788698  T        0
Si       6.29865983       8.98662266      11.16584568  T        0
Si      13.75455155      10.62672824       2.00933479  T        0
Si       4.40855405      10.95458560       7.45039164  T        0
Si       7.63890262      11.11061778       7.32246881  T        0
Si       7.44280170      18.81427229       7.42476379  T        0
Si      12.65530597       8.79891866       5.90488973  T        0
Al       8.62448559      10.35538610       4.24468734  T        0
Si       8.44876770      19.21764626       4.44774289  T        0
Si      11.58745480       9.02773788       8.92115680  T        0
Si       6.07576148      11.21856183       2.44276564  T        0
Si       3.83528358       8.33275506       9.29702408  T        0
Si       5.82966582      18.65043435       2.88029704  T        0
Si       8.48238823      16.56917869       9.31914114  T        0
Al       8.60673373      13.25341421       9.52702093  T        0
Si      11.84737555       6.33664496       4.04062576  T        0
Si       6.09672608      12.16080983      11.22054053  T        0
Si      14.00005235       7.48786195       2.07429524  T        0
Si       5.27135420      16.63565374       0.46497524  T        0
Si       5.34724109      13.43749239       0.30699957  T        0
Si       7.52549927       6.31446725       6.85725923  T        0
Si      12.57822475      13.45577628       6.43702666  T        0
Si      12.60129936      16.61851465       6.32875494  T        0
Si       8.76428301       7.09072900       4.01535491  T        0
Si      11.55276306      12.23965914       9.17676003  T        0
Si      11.53698400      17.47671530       9.20071683  T        0
Si       3.72828789      13.34316836       9.38754810  T        0
O        8.43416229      19.92991275       8.12629070  T        0
O        5.36184303      20.07009360       2.17876223  T        0
O        8.38132394      20.85263363       4.62442016  T        0
O        6.33708980      17.32615438      -0.58074291  T        0
O        6.41256231      13.13599946      -0.90666719  T        0
H        1.81269882      11.30123319       3.09859993  F        0
H       13.03074803      18.74401529       2.26762503  F        0
H       12.34310542      20.30287261       5.56688324  F        0
H        6.01931354       8.91222751      13.59787507  F        0
H       14.08297195      10.81847671      -0.34490677  F        0
H        3.60112680       8.06005012       4.30646574  F        0
H        4.05829635      18.79668859       4.41071282  F        0
H       15.58095515      11.20568437       3.25070227  F        0
H        5.06295559      18.75104696       7.26028496  F        0
H       15.03932990       8.88569483       5.99268334  F        0
H        5.72719027       9.20254625       1.33756862  F        0
H        1.92726146       8.79770260      10.59110356  F        0
H       13.54926599       8.42132791      10.11787432  F        0
H       11.52310955      19.83515307       9.21116341  F        0
H        4.51576461       6.77574371       7.71911054  F        0
H        6.74596320      16.92620537      10.74076342  F        0
H       11.61525895       4.01919395       4.45233654  F        0
H        5.86807409      12.98161584      13.33116226  F        0
H       14.23421140       6.74908840      -0.07819396  F        0
H       15.83774429       6.73639486       3.37716865  F        0
H        2.98936131      16.34896307       0.14601228  F        0
H        5.18772305       6.48136951       6.94399129  F        0
H        2.98936131      13.24709329       0.14601228  F        0
H       14.91456245      13.24933472       6.30897701  F        0
H       14.91456244      16.34672163       6.30897701  F        0
H        7.92514400       4.01763560       6.85279547  F        0
H        6.78202892       6.52695113       2.93525138  F        0
H        1.73086689      12.60761804      10.35624453  F        0
H       13.32025657      13.20375310      10.31771692  F        0
H       13.32025658      16.39230324      10.31771692  F        0
H        4.05997682      15.72757570       9.28699687  F        0
H        8.32625906      20.60985804       8.81306681  F        0
H        5.72719026      20.39380587       1.33756863  F        0
H        8.66651872      21.47399316       3.93953912  F        0
H        6.36643797      17.19386972      -1.54340896  F        0
H        6.36643797      12.40218664      -1.54340896  F        0
Fe       8.28886160      14.41002525       6.92603848  T        0
Fe       8.62151723      12.97972149       4.01409258  T        1
O        7.64042948      14.44592761       4.99633420  T        2
O        9.14597363      14.61918288       5.06922623  T        3
