132
Lattice="20.102 0.0 0.0 0.0 19.731 0.0 0.0 0.0 13.253" Properties=species:S:1:pos:R:3:move_mask:L:1:tags:I:1 i=77 E=-3472.0240129048 regions="_JSON [\"Active\"]" n_terminators=34 energy=-875.1539055506366 pbc="F F F"
O       10.16217193       8.39708508       9.21312121  T        0
O        9.86119036      18.71917132       3.89403195  T        0
O        9.94125974      11.47922628       4.07668057  T        0
O        7.74513721       8.61377703      10.43256583  T        0
O       12.08478463      18.89256359       2.46368888  T        0
O       12.37962119      11.22360995       2.83199238  T        0
O        7.96437461       7.25990004       8.16368030  T        0
O       12.21314844      17.67179224       4.81519282  T        0
O       12.05941714      12.73658771       5.00955450  T        0
O        8.31416448       9.91055181       8.14260968  T        0
O       11.77393261      20.31709724       4.78140094  T        0
O       11.83569163      10.06424363       5.22919309  T        0
O        6.63202813       8.87799732      12.82943915  T        0
O       13.46239379      10.89647462       0.41520234  T        0
O        6.14428629      10.67146595      10.76385677  T        0
O       13.78984214       9.05912947       2.47265030  T        0
O        4.74697935      11.36198638       4.01064542  T        0
O        5.04419203       8.24909389      10.77400005  T        0
O        4.94302754      18.49770862       4.14067104  T        0
O       15.08163120      11.42543812       2.44681460  T        0
O       13.95167446      17.19478090      12.04656495  T        0
O       14.76200151      12.37355096      11.79100895  T        0
O        5.88170239      10.36616673       7.44646914  T        0
O        5.83364124      19.29914491       7.50900709  T        0
O       14.23389856       9.36981545       5.75756357  T        0
O        5.27716280       9.54353617       2.13053925  T        0
O        7.55148548      12.47821053       7.95375059  T        0
O        7.81670563      17.53908041       7.94597292  T        0
O       12.36760357       7.42130037       5.22724621  T        0
O        7.97186130      11.13789044       5.78197620  T        0
O        7.90251631      18.92368965       5.70735922  T        0
O       12.25304750       8.67208872       7.50118053  T        0
O        7.23452072      11.18955572       3.05060416  T        0
O        7.30785324      18.38416744       3.13412677  T        0
O       12.60997251       8.68089113      10.16486052  T        0
O        8.63835153       8.78280160       4.06000618  T        0
O       11.36274790      10.74183216       8.88751971  T        0
O       11.19032180      18.98997911       9.57717077  T        0
O        5.23083675      12.08549731       1.41171926  T        0
O        5.33490261      16.92679946       2.00578234  T        0
O       10.03993703      16.58089307       9.10629967  T        0
O        9.83934661      13.23767645       9.19683903  T        0
O       10.26353235       6.68938834       3.68155249  T        0
O        7.71374658      16.98232172      10.57921894  T        0
O        7.43845400      13.01330436      10.53472301  T        0
O       12.78897295       6.59055786       2.77857782  T        0
O        7.98971452      14.99105710       8.78722669  T        0
O       12.01157005       4.87249355       4.71576438  T        0
O        6.22831036      12.26220084      12.80210972  T        0
O       13.87271963       7.46635285       0.45546574  T        0
O        4.73588714      13.01658246      10.72663464  T        0
O       14.88263054      12.84219491       9.08947281  T        0
O       15.48489069       6.93455824       2.49287652  T        0
O       15.29712091      17.28061925       9.85190323  T        0
O        5.98520463       6.62960291       6.40971976  T        0
O       14.26820217      13.92316330       6.06784197  T        0
O       14.24786353      17.03482027       6.48018889  T        0
O        7.73733841       4.76864895       7.44156671  T        0
O       12.16511402      15.30470057       5.96151217  T        0
O        8.45135265       6.61659538       5.59894547  T        0
O       11.95387404      13.34766800       7.59549066  T        0
O       11.82997252      17.53269836       7.40199410  T        0
O        7.75356657       6.43632560       2.97678520  T        0
O       12.53815224      12.94471668      10.33459032  T        0
O       12.61859937      16.64500337       9.78340123  T        0
O       14.35101742      14.85615210      10.76341379  T        0
Si       8.54905773       8.52998931       9.00150611  T        0
Si      11.48185141      18.88956052       3.99523528  T        0
Si      11.58553774      11.34530989       4.25242367  T        0
Si       6.38757783       9.10250756      11.21891915  T        0
Si      13.69775385      10.63122368       2.02246667  T        0
Si       7.40758925      10.96172108       7.32010848  T        0
Si       7.43902298      18.99621750       7.26386188  T        0
Si      12.66792668       8.85136092       5.94256319  T        0
Al       8.39577411      10.47089404       4.12953604  T        0
Si       8.30752511      19.19626234       4.14229413  T        0
Si      11.60614853       9.15338217       8.93839902  T        0
Si       5.66302633      11.07468504       2.65091298  T        0
Si       5.72419567      18.38306258       2.68628646  T        0
Si       8.34929575      16.56203621       9.11973580  T        0
Si       8.21094269      13.38357769       9.15449869  T        0
Si      11.81395914       6.38299967       4.08603589  T        0
Si       6.12746727      12.24159136      11.17020728  T        0
Si      13.97770229       7.48348737       2.09207459  T        0
Si       7.53377315       6.31482111       6.90473472  T        0
Si      12.63805917      13.73610027       6.16654370  T        0
Si      12.64592502      16.85966471       6.14477912  T        0
Si       8.74044168       7.17300931       4.08032771  T        0
Al      11.46475900      12.43770225       9.08007748  T        0
Si      11.46911310      17.48214731       8.99628102  T        0
Si      14.10928681      13.23124972      10.52641383  T        0
Si      14.07063973      16.45453535      10.58018429  T        0
O        8.31728841      20.23041850       7.91504889  T        0
O        5.31825900      19.54061416       1.57659875  T        0
O        8.05721540      20.76355542       3.70161693  T        0
H       13.03074803      18.74401529       2.26762503  F        0
H       12.34310542      20.30287261       5.56688324  F        0
H        6.01931354       8.91222751      13.59787507  F        0
H       14.08297195      10.81847671      -0.34490677  F        0
H        4.05829635      10.79936776       4.41071281  F        0
H        4.52133035       8.52501985      10.00226603  F        0
H        4.05829635      18.79668859       4.41071282  F        0
H       15.58095515      11.20568437       3.25070227  F        0
H       14.40563884      18.04556895      12.19637069  F        0
H       14.40563885      11.55048737      12.19637067  F        0
H        5.06295559      10.84500939       7.26028495  F        0
H        5.06295559      18.75104696       7.26028496  F        0
H       15.03932990       8.88569483       5.99268334  F        0
H        5.72719027       9.20254625       1.33756862  F        0
H       13.54926599       8.42132791      10.11787432  F        0
H       11.52310955      19.83515307       9.21116341  F        0
H        5.53537813      12.95496052       1.09262639  F        0
H        5.53537813      16.64109584       1.09262638  F        0
H        6.74596320      16.92620537      10.74076342  F        0
H       11.61525895       4.01919395       4.45233654  F        0
H        5.86807409      12.98161584      13.33116226  F        0
H       14.23421140       6.74908840      -0.07819396  F        0
H        4.26454119      12.99430937       9.87579967  F        0
H       15.75661379      12.42699387       9.00459924  F        0
H       15.83774429       6.73639486       3.37716865  F        0
H       15.75661380      17.16906248       9.00459925  F        0
H        5.18772305       6.48136951       6.94399129  F        0
H       14.91456245      13.24933472       6.30897701  F        0
H       14.91456244      16.34672163       6.30897701  F        0
H        7.92514400       4.01763560       6.85279547  F        0
H        6.78202892       6.52695113       2.93525138  F        0
H        8.32625906      20.60985804       8.81306681  F        0
H        5.72719026      20.39380587       1.33756863  F        0
H        8.66651872      21.47399316       3.93953912  F        0
Fe       9.10829673      12.83389478       5.43105117  T        0
Fe      10.26039284      14.73254737       7.63592259  T        1
O        9.32855496      14.49790705       6.05139300  T        2
