148
Lattice="20.102 0.0 0.0 0.0 19.731 0.0 0.0 0.0 13.253" Properties=species:S:1:pos:R:3:move_mask:L:1:tags:I:1 i=77 E=-3472.0240129048 regions="_JSON [\"Active\"]" n_terminators=32 energy=-1017.192561553806 pbc="F F F"
O        9.93258078      18.55572090       3.96437666  T        0
O        9.97299683      10.37303789       4.01636623  T        0
O        2.17577823      18.24674158       3.99878150  T        0
O       12.09757498      18.83226031       2.52028712  T        0
O       12.11828271      11.08243982       2.52706425  T        0
O       12.09325224      17.17332112       4.64216184  T        0
O       11.63346532      12.30621356       4.89910929  T        0
O       12.08583259      19.76767694       5.05724835  T        0
O       12.48945342       9.70328010       4.70003447  T        0
O        3.45114525      18.89501073       6.18303119  T        0
O        6.19325088      18.71784912      11.18983472  T        0
O       16.90241851      10.66494596       9.25203353  T        0
O       16.95779584      18.93761575       9.21554272  T        0
O        4.90421858      18.44459417       4.04927790  T        0
O        3.96042150      17.21102384       8.17028355  T        0
O       14.26348980      17.09088183      12.03798020  T        0
O       14.32698141      12.51253081      12.08269786  T        0
O        5.87024415      18.91303418       7.31326456  T        0
O        3.75897494      19.78444307       8.65231220  T        0
O        7.46616520      12.02494498       8.21639349  T        0
O        7.88798019      17.14855257       7.49372991  T        0
O        7.90620076      19.05017236       5.63164514  T        0
O        7.41027697      18.52100668       3.08903864  T        0
O       11.77526272      10.52814962       8.67136018  T        0
O       11.40798241      18.96901484       9.28948339  T        0
O        5.47373559      16.94757881       2.01129556  T        0
O       16.35026967      17.13397782       4.55130727  T        0
O       16.28721139      12.49017771       4.56237123  T        0
O       10.26546540      16.50865867       8.84466492  T        0
O        9.87938694      12.29181647       9.51088600  T        0
O        7.58006940      16.59919508      10.28826609  T        0
O        7.56248591      13.16591881      10.56460104  T        0
O       17.65115904      13.21932526       9.47544120  T        0
O       17.91159327      16.49972744       9.40963594  T        0
O        8.72681131      14.46770884       8.53422444  T        0
O        6.56646374      16.49451816      12.67386981  T        0
O       16.46419900      12.48477167       7.25009756  T        0
O       16.51253409      17.09638947       7.22626708  T        0
O        4.87700560      16.53115292      10.59761573  T        0
O       15.01336317      12.58182800       9.46091380  T        0
O       15.24391690      16.87744935       9.53514801  T        0
O       16.28898935      14.77819180       5.86715092  T        0
O       14.15625520      13.14382183       6.11740399  T        0
O       14.23146658      16.42178821       6.01087616  T        0
O       11.94403579      15.00770094       6.18722187  T        0
O       11.59606546      12.96341314       7.65803380  T        0
O       12.17283161      17.39195077       7.31032190  T        0
O        2.25442968      16.21965802      10.06730226  T        0
O       12.45929640      12.71817854      10.16063885  T        0
O       12.65055625      16.71917164       9.88140236  T        0
O        4.02621011      14.70061379       8.78820379  T        0
O       14.13064321      14.75961273      10.78369461  T        0
Si      11.55109644      18.60197852       4.05162346  T        0
Si      11.54379850      10.91315198       4.07144537  T        0
Si       3.48271703      19.06913992       4.56727828  T        0
Si       4.28254797      18.68776328       7.56783379  T        0
Si       7.47681444      18.66977734       7.15108038  T        0
Si       8.45503727      19.23304596       4.12649188  T        0
Si       5.82311803      18.39396944       2.70279827  T        0
Al       8.45969072      16.26577472       8.86696638  T        0
Si       8.40868308      12.96941794       9.18016921  T        0
Si       6.32055695      17.08701319      11.15658174  T        0
Si      16.50567610      12.22073566       8.85624750  T        0
Si      16.64033053      17.36290371       8.83390559  T        0
Si      15.75906712      13.21288583       5.94912919  T        0
Si      15.85742868      16.34885149       5.91886050  T        0
Al      12.45475782      13.25075312       6.08250536  T        0
Si      12.62936542      16.50316049       6.01863613  T        0
Si      11.44380744      12.09681684       9.04281236  T        0
Si      11.62596463      17.43618691       8.85139674  T        0
Si       3.78154733      16.19397815       9.43400915  T        0
Si      13.99638882      13.14420053      10.59990020  T        0
Si      14.09346471      16.37613691      10.56345330  T        0
O       10.06332676      21.22106492       9.38982420  T        0
O        7.68038956      20.83123342      10.48728720  T        0
O        7.93484002      22.40064532       8.36878080  T        0
O        8.25820002      19.72261627       8.13765426  T        0
O        6.60838993      20.83543529      12.84083582  T        0
O        3.37687908      20.64307374       4.12624669  T        0
O        5.01946243      21.01603111      10.66082179  T        0
O        6.10516038      22.26007337       1.27763984  T        0
O        3.86566253      21.28103073       0.31086492  T        0
O       14.23644895      20.58697366       6.52125136  T        0
O        5.37260390      19.68316760       1.81399183  T        0
O       12.50601352      22.33674328       5.32424532  T        0
O       11.86480872      20.87082401       7.47053956  T        0
O        2.42968325      21.51591859      10.17258170  T        0
O       12.58194038      21.28020493      10.07726831  T        0
O        8.60504210      20.81843092       3.77066503  T        0
O        4.28135660      22.42460942       8.53847074  T        0
O       10.19746751      22.96952076       3.98094651  T        0
O        2.36357920      23.12102608       3.81061254  T        0
O       12.44014690      22.82190829       2.66792837  T        0
O       12.14613101      24.77363398       4.57633379  T        0
O        3.71719244      22.53214690       5.96217205  T        0
O        5.04591856      22.66971168       3.66868012  T        0
O        3.82226882      24.79463389       7.40771911  T        0
O        6.04878523      23.47060120       6.80633412  T        0
O        8.32250716      24.78919605       7.25796220  T        0
O        8.30570507      22.52913868       5.77445592  T        0
O        7.63412034      23.22513769       3.28192984  T        0
O        5.80466948      24.78500391       2.13980274  T        0
Si       8.46889803      21.03241611       9.08174916  T        0
Si       6.35921198      20.33050801      11.29791565  T        0
Si       5.42109669      20.87497135       0.71411969  T        0
Si      12.67645261      20.89737509       6.06780793  T        0
Si      11.51393586      20.58660543       9.03814773  T        0
Si       3.88913838      21.17141471       9.49679644  T        0
Si      11.80345566      23.22749100       4.13489414  T        0
Si       3.63217803      22.23748006       4.36503661  T        0
Si       4.47115505      23.29976666       7.18482990  T        0
Si       7.64829282      23.29849489       7.04966189  T        0
Si       8.69126055      22.38328167       4.20234185  T        0
Si       6.14298502      23.23838304       2.60270269  T        0
O        6.29340033      20.16313005      -0.48169321  T        0
H        9.14696243      10.88061927       4.12569575  F        0
H        1.81269882      18.29482316       3.09859994  F        0
H       13.03074803      18.74401529       2.26762503  F        0
H       13.03074804      10.85204106       2.26762503  F        0
H       12.34314048       9.29328245       5.56696388  F        0
H       16.64303307       9.81912404       8.84117322  F        0
H       16.64304187      19.77694965       8.84122497  F        0
H       14.40563884      18.04556895      12.19637069  F        0
H       14.40563885      11.55048737      12.19637067  F        0
H        7.69777211      11.47779022       7.44841170  F        0
H       11.52310774       9.76092419       9.21110646  F        0
H        5.53537813      16.64109584       1.09262638  F        0
H       15.87290964      17.87210703       4.12309272  F        0
H       15.87290964      11.72394929       4.12309273  F        0
H        6.74596321      12.66985099      10.74076342  F        0
H       18.05303808      13.25020103      10.35989921  F        0
H       18.05303809      16.34585533      10.35989921  F        0
H        5.86807409      16.61444052      13.33116226  F        0
H        1.73086688      16.98843832      10.35624453  F        0
H        4.05997682      13.86848065       9.28699688  F        0
H        6.01931354      20.68412461      13.59787507  F        0
H        3.12887898      20.67205847       0.49683427  F        0
H       15.03932989      20.71065726       5.99268335  F        0
H        1.92726146      20.79864952      10.59110356  F        0
H       13.54926599      21.17502420      10.11787433  F        0
H        2.04924740      23.11584890       2.89306909  F        0
H       13.35632229      22.53549888       2.51220488  F        0
H       11.61525895      25.57715817       4.45233654  F        0
H        4.37526294      25.57806860       7.26036481  F        0
H        7.92514400      25.57871651       6.85279547  F        0
H        5.99116593      25.59322359       2.66051272  F        0
H        6.58577873      20.44665665      -1.35751145  F        0
Fe      10.62395323      14.78445633       7.75550371  T        1
