139
Lattice="20.102 0.0 0.0 0.0 19.731 0.0 0.0 0.0 13.253" Properties=species:S:1:pos:R:3:move_mask:L:1:tags:I:1 i=77 E=-3472.0240129048 regions="_JSON [\"Active\"]" n_terminators=34 energy=-926.5147338450214 pbc="F F F"
O       10.28553538       8.43788191       9.27491413  T        0
O       10.01219853      11.04540286       4.02212870  T        0
O        8.16326086       8.78169563      10.53416713  T        0
O       12.17721120      11.26026585       2.50262683  T        0
O        8.09589068       7.25030248       8.23956346  T        0
O       12.04454575      12.56041841       4.87686414  T        0
O        8.27619447       9.93709954       8.13479396  T        0
O       12.36166009       9.91591169       4.74596180  T        0
O        3.47140970      10.30388502       6.19492949  T        0
O        6.55799246       8.85018329      12.99157092  T        0
O        6.77890563      11.08660529      11.18463510  T        0
O        5.33181022       8.64981366      10.30682436  T        0
O       15.75622610       8.53213420       9.68777941  T        0
O        3.77676482      12.46959660       7.86870113  T        0
O       14.54327882      12.41654628      11.88270520  T        0
O        5.85776994      10.84024989       7.35086037  T        0
O       14.23108936       9.01696942       6.50581806  T        0
O       16.13945728      10.68075761      13.23648290  T        0
O        3.70163670      10.00616545       8.73986567  T        0
O       14.22351179       9.79765649      11.51816244  T        0
O        7.79233106      12.57234598       7.86947799  T        0
O        7.39331739      17.44596266       8.07931370  T        0
O       12.44027355       7.34964287       5.29208862  T        0
O        7.96403097      10.99304092       5.73530086  T        0
O       11.76376192       9.10836710       7.20192663  T        0
O        7.52579168      11.22245500       3.10713862  T        0
O        2.62763401       8.16938360      10.34198095  T        0
O       13.00568844       8.50055997       9.51999648  T        0
O        8.42919877       8.90099651       4.14282290  T        0
O       11.44799565      10.65212234       9.48139809  T        0
O        4.10586948       7.40432483       8.28487281  T        0
O       14.18723432       7.08310132      11.31788034  T        0
O        9.84139684      17.42850430       9.11431575  T        0
O        9.78210947      12.86061328       9.64434537  T        0
O       10.25609276       6.96161343       3.74963536  T        0
O        7.68089902      16.68220720      10.60771558  T        0
O        7.43208347      13.40269438      10.42792616  T        0
O       12.69921794       6.38938779       2.77734617  T        0
O        8.53869025      15.06968215       8.64925408  T        0
O       11.68289392       4.91634166       4.82269344  T        0
O        3.57700408       6.59232966       5.71278867  T        0
O        6.01620275      13.22326787      12.61519634  T        0
O        4.78227068      12.74580649      10.29836910  T        0
O       14.84307662      12.69736468       9.19660347  T        0
O        4.13226305       4.86533257       7.67233645  T        0
O        6.04449772       6.53929461       6.67695506  T        0
O       14.10996326      13.77619786       6.15511905  T        0
O        7.96123742       4.77568100       7.45912557  T        0
O       11.76482435      14.91860407       6.02308123  T        0
O        8.45209042       6.72659698       5.65115738  T        0
O       11.91539570      12.68001702       7.50763516  T        0
O        7.75489508       6.52317574       3.02835572  T        0
O        2.20366576      13.37044504       9.97121423  T        0
O       12.52910586      13.23374658      10.28102379  T        0
O        4.07010297      14.89134587       8.78750067  T        0
O       14.57430292      14.89956895      10.85675322  T        0
Si       8.62441186       8.57814989       8.97197775  T        0
Si      11.63909196      11.22170653       4.05998617  T        0
Al       6.58579675       9.28630750      11.31269980  T        0
Si       4.22605894      10.92352473       7.51522448  T        0
Si      14.62974182      10.95338480      12.61736651  T        0
Si       7.46423834      11.07449888       7.26793030  T        0
Si      12.70870799       8.83578791       5.89696884  T        0
Si       8.48592279      10.53107483       4.25270344  T        0
Si      11.72137542       9.20046715       8.81158363  T        0
Si       3.96791133       8.54317106       9.45799323  T        0
Si      14.32684775       8.51378008      10.51397297  T        0
Si       8.39281075      16.65065733       9.11442141  T        0
Si       8.39343336      13.50885770       9.05480210  T        0
Si      11.75600694       6.40518512       4.13291916  T        0
Si       6.14601193      12.58260764      11.13085988  T        0
Si       4.46103207       6.36861727       7.09049434  T        0
Si       7.62224718       6.30915407       6.98174105  T        0
Si      12.48874931      13.44000367       6.19790213  T        0
Si       8.70111282       7.29167194       4.13853458  T        0
Al      11.49494726      12.41218463       9.16105194  T        0
Si       3.68327388      13.36349826       9.24022014  T        0
Si      14.11334275      13.32759496      10.55956489  T        0
O        9.94580544      11.32228657      17.62374349  T        0
O       12.16320280      10.82710739      16.21645388  T        0
O       12.11969763      12.74594271      18.12177542  T        0
O       12.07564327      10.22150608      18.91031564  T        0
O       13.64947642      10.78666087      13.92785413  T        0
O       14.06118905       8.89554093      15.85990985  T        0
O        4.71170456      11.43017641      17.30982828  T        0
O       14.65499036      11.43559698      16.37095827  T        0
O        5.36294533       7.20722553      14.85417780  T        0
O        4.02129713       9.02013359      13.39056963  T        0
O        5.69706962       9.79390037      15.37705468  T        0
O        8.17008025      10.08442315      19.29790081  T        0
O        7.36482324      11.14001899      16.94860314  T        0
O        9.05695552       8.98802709      17.02492318  T        0
O        5.91725049      12.48950611      15.19923840  T        0
O        5.25536517      15.01091715      14.41946720  T        0
O        3.67451107      12.83842255      13.94877375  T        0
Si      11.58594122      11.24564457      17.70612550  T        0
Si      13.62055602      10.46675139      15.54814541  T        0
Si       5.44807282       8.71177026      14.15992234  T        0
Si       8.60095218      10.40413484      17.73112335  T        0
Si       5.90879784      11.17966673      16.19964901  T        0
Si       5.21726196      13.40278362      14.04974183  T        0
H       13.03074804      10.85204106       2.26762503  F        0
H        3.46536401      10.58100877       5.26900439  F        0
H       16.04398914       8.93133647       8.84225548  F        0
H       15.03932990       8.88569483       5.99268334  F        0
H       16.97340651      10.80641058      12.75613404  F        0
H        7.69777211      18.11826613       7.44841170  F        0
H        6.55301950      11.30937632       3.13509397  F        0
H        1.92726146       8.79770260      10.59110356  F        0
H       14.56690736       6.77574372      12.16034191  F        0
H       10.76020324      17.16956735       9.31164421  F        0
H        6.74596320      16.92620537      10.74076342  F        0
H       13.35632228       7.06085325       2.51220488  F        0
H       11.61525895       4.01919395       4.45233654  F        0
H        3.68470478       7.32851759       5.08310689  F        0
H       15.75661379      12.42699387       9.00459924  F        0
H        4.37526294       4.01828352       7.26036481  F        0
H       14.91456245      13.24933472       6.30897701  F        0
H        7.92514400       4.01763560       6.85279547  F        0
H       12.17714149      15.71306863       6.40017283  F        0
H        6.78202892       6.52695113       2.93525138  F        0
H        1.73086689      12.60761804      10.35624453  F        0
H        4.05997682      15.72757570       9.28699687  F        0
H       14.11111957      15.72757569      10.59245558  F        0
H       12.25872463      13.00694285      19.04928406  F        0
H       12.34314048       9.29328245      18.81996388  F        0
H       13.65226955       8.06005012      15.57301841  F        0
H        4.05829635      10.79936776      17.66371281  F        0
H       15.58095515      11.20568437      16.50370227  F        0
H        6.01932001       6.80354450      15.45091456  F        0
H        3.12887899       8.92429365      13.74983426  F        0
H        7.89439933      10.75417195      19.94994328  F        0
H        8.66651872       8.12235896      17.19253912  F        0
H        5.67587981      15.71242072      13.88688066  F        0
H        2.98936131      13.24709329      13.39901228  F        0
Fe      10.09188244       9.59728792      11.10912445  T        0
Fe       8.87349527      12.03254280      11.41926129  T        1
O       10.57232825      11.21388373      12.22487552  T        2
O        9.31530181      10.57492772      12.75018241  T        3
