115
Lattice="24.397 0.0 0.0 0.0 24.397 0.0 0.0 0.0 24.397" Properties=species:S:1:pos:R:3:move_mask:L:1:tags:I:1 i=41 E=-6943.8331748197 regions="_JSON [\"Active\"]" n_terminators=28 energy=-769.9157383914139 pbc="F F F"
O       21.68648770       2.53659273       0.05959410  T        0
O       21.99147807       6.21907040       3.64818329  T        0
O       20.80406865       3.67963870      12.32903793  T        0
O       15.69722565       6.24044274       9.82893506  T        0
O       21.80774566       0.05751780       2.52634238  T        0
O       21.73712462       3.63728388       5.56375431  T        0
O       18.19828392       3.60248683       9.76357455  T        0
O       23.80388917       1.72434436       1.75885468  T        0
O       22.74881482       5.07701451       7.80323505  T        0
O       22.63330226       8.00332822       5.54263010  T        0
O       18.86326273       4.24676714      14.16762707  T        0
O       16.24486783       4.16776258      11.49769617  T        0
O       23.93334706       4.38986258       4.32606449  T        0
O       17.69333051       8.00700166      10.38123379  T        0
O       20.10863333       5.36076685      10.39145585  T        0
O       20.73235486       6.23797912       5.99470549  T        0
O       18.29768014       2.62281134      12.24932898  T        0
O       14.58564362       6.14832864      12.28933272  T        0
O       20.94088254      -0.02350862      -0.02638906  T        0
O       24.27894592       2.65196269       6.36689773  T        0
O       24.41270376       6.21041732       2.37043656  T        0
O       18.14552396       6.06856987       8.73420764  T        0
O       21.95076557       6.13845072      12.24873643  T        0
O       22.55612423       4.24002763       2.08133978  T        0
O       16.57167147       1.68446707      10.40099649  T        0
O       22.61275765       4.41135475      10.42228619  T        0
O       20.26830224       8.17675899       4.13923453  T        0
O       16.37805674       7.99502401       7.95444171  T        0
O       20.18236215       1.81848197      14.04773737  T        0
O       13.79228532       4.43416629      10.42027562  T        0
O       22.81413582       1.88063083       4.18516051  T        0
O       19.96176681       4.28944623       7.91391594  T        0
Al      23.19165632       3.03413125       0.77743410  T        0
Si      23.58577907       4.85432402       9.17009498  T        0
Si      21.36708262       7.17678906       4.87405949  T        0
Si      19.54665430       3.08674773      13.20192763  T        0
Si      15.10812039       5.24688585      11.00472417  T        0
Si      23.23073339       0.80550196       2.92343076  T        0
Al      21.25935317       4.85525991       6.92245539  T        0
Si      17.31605506       3.02519430      10.99550034  T        0
Si      23.29199425       3.14714010       5.21194682  T        0
Si      19.12447403       4.82115630       9.17977789  T        0
Si      23.26668195       5.33387427       3.12858212  T        0
Si      21.35016345       4.89495916      11.35265721  T        0
Si      16.97224532       7.08819049       9.20776988  T        0
O       24.68378630       3.63481029       8.85010672  T        0
O       28.02363451       0.18072421       8.87411270  T        0
O       26.25246972       4.32502335       6.72573828  T        0
O       28.87278145       1.74401373       6.77199994  T        0
O       24.40398928       6.18006297       9.71901943  T        0
O       26.35316892       1.83741126       7.79803077  T        0
Si      27.63031128       0.88390990       7.43345182  T        0
Si      25.40859655       3.12663760       7.48704669  T        0
O       24.60249450       2.39139762      -2.68451430  T        0
O       26.27796683       1.81996051      -0.64218431  T        0
O       24.34831230      -0.15725769      -3.58302605  T        0
O       26.43489362       4.19622764      -2.01758078  T        0
Si      25.42713718       3.03378849      -1.39482635  T        0
O       24.58460115      -2.73170165       2.48581562  T        0
O       28.04194115      -2.79083629       5.90022251  T        0
O       26.18312275      -0.69004994       1.71872197  T        0
O       28.86981751      -0.66791377       4.34904867  T        0
O       24.44828401      -3.67935096      -0.05197046  T        0
O       27.22920617      -0.23387640       6.31206010  T        0
O       26.37937159      -1.74769951       4.22086500  T        0
Si      25.38410311      -1.38467555       2.97947336  T        0
Si      27.63289433      -1.35560030       5.19545907  T        0
O       22.45917804       0.91192595      -1.97576190  T        0
O       24.41271522       3.63757974      -0.28546662  T        0
O       19.89587842       1.82319838      -1.69649183  T        0
O       22.74483350       1.75081612      -4.51875918  T        0
Si      23.54353080       1.23087271      -3.16510876  T        0
Si      21.26208928       1.32543028      -0.92433128  T        0
O       18.01448904      -3.42000719       2.48013832  T        0
O       20.98868593      -6.42729484       2.48109048  T        0
O       22.65595615      -1.85355099       0.87129793  T        0
O       19.98721219      -4.45460302       0.96718728  T        0
O       24.30919415      -0.26292402       3.50536369  T        0
O       18.34208075      -2.58277045      -0.10095717  T        0
O       21.87519008      -6.09035141      -0.08554640  T        0
O       20.09591629      -1.87602542       1.69972842  T        0
O       22.59142833      -4.38052088       1.70414280  T        0
Si      21.35995134      -0.92495448       1.25525187  T        0
Si      21.33282050      -5.34604918       1.27374216  T        0
Si      23.58132036      -3.15483943       1.24524253  T        0
Si      19.09581196      -3.10821996       1.26409556  T        0
H       23.12591818       8.65411950       5.02704696  F        0
H       19.36965545       4.82834000      14.75328662  F        0
H       17.22544070       8.65411150      10.92750362  F        0
H       15.05290857       6.89848394      12.70105939  F        0
H       24.89951448       6.89840000       2.85451751  F        0
H       21.54216028       6.60187434      12.99765198  F        0
H       15.76397057       1.24433790      10.70999951  F        0
H       19.54188497       8.63276802       4.61080426  F        0
H       16.80917624       8.63275354       7.34350618  F        0
H       19.78591983       1.24430349      14.73192035  F        0
H       13.44269039       3.56560577      10.71001015  F        0
H       28.68412657      -0.52720168       8.95914398  F        0
H       26.95194124       4.82834452       7.17131883  F        0
H       29.22534449       2.55494125       7.17131883  F        0
H       25.19630604       6.60185806       9.34383627  F        0
H       26.95192867       1.27083937      -1.07240246  F        0
H       25.19622735      -0.50276655      -3.24494277  F        0
H       26.93057835       4.85486043      -1.48866112  F        0
H       28.68420928      -2.86021580       6.62630136  F        0
H       26.95192866      -1.07240650       1.27083969  F        0
H       29.22533919      -1.07238634       3.54426709  F        0
H       25.19622853      -3.24494603      -0.50276481  F        0
H       19.54187345       1.48839893      -2.53384082  F        0
H       21.86315508       1.48839893      -4.85512307  F        0
H       17.77043326      -4.28747560       2.85995000  F        0
H       20.10952426      -6.62656664       2.85995001  F        0
H       17.49833238      -2.85478383      -0.50277915  F        0
H       21.54221602      -6.89866750      -0.50277915  F        0
Fe      21.37382241       3.36683461       3.49478652  T        1
