136
Lattice="19.123 0.0 0.0 0.0 14.277 0.0 0.0 0.0 7.5465" Properties=species:S:1:pos:R:3:move_mask:L:1:tags:I:1 i=128 E=-2603.9155142701 regions="_JSON [\"Active\"]" n_terminators=32 energy=-911.7391974286708 pbc="F F F"
O        5.97956256       1.10844580       1.39215590  T        0
O       15.72881659       8.43494748       5.79480716  T        0
O       13.05201427       1.13492698       1.47074158  T        0
O        3.49482378       8.45104395       5.78903385  T        0
O        6.01329332      13.17021690       1.41845576  T        0
O       15.69454086       5.75500394       5.86610950  T        0
O       12.86854847      13.10083677       1.72858446  T        0
O        3.44631073       5.76970425       5.85863073  T        0
O       13.38095163      13.21098573       6.24374409  T        0
O        3.42767460       5.79623800       1.65907851  T        0
O        6.01957849      13.16746087       6.12045127  T        0
O       15.62838487       5.83292274       1.74770859  T        0
O       12.93844551       1.15147046       5.93087635  T        0
O        3.41037857       8.48088659       1.73641912  T        0
O        6.04789161       1.11715834       6.10140319  T        0
O       15.71125287       8.53106108       1.69097223  T        0
O        7.15077726       3.38301519       2.41789202  T        0
O       17.16610357      10.70359137       6.14137973  T        0
O       12.01623611       3.45567149       2.48032300  T        0
O        1.96565948      10.65636405       6.16994755  T        0
O        7.17984689      10.86503039       2.30516596  T        0
O       17.14987692       3.48131210       6.11203410  T        0
O       11.73724849      10.68057677       2.28241841  T        0
O        1.94467599       3.53796462       6.09482774  T        0
O       11.95474492      11.21902687       5.07294205  T        0
O        1.90403269       3.59301293       1.40694975  T        0
O        7.19848159      10.98684904       4.99524976  T        0
O       17.20267618       3.67078791       1.36601524  T        0
O       11.88710704       3.53042034       5.11085295  T        0
O        1.91244949      10.70226423       1.41848722  T        0
O        7.24890152       3.42118360       5.17537856  T        0
O       17.09026246      10.86066306       1.46176469  T        0
O        6.62195807       3.28062198      -0.05799130  T        0
O       16.04907344      10.17223545       3.79067378  T        0
O       12.49671799       3.26688305      -0.04371856  T        0
O        2.97271466      10.13628093       3.78997612  T        0
O        6.30273089      11.17214929      -0.21877298  T        0
O       16.11545028       4.14784549       3.76336014  T        0
O       12.40289415      11.07899382      -0.06173273  T        0
O        3.01038681       4.18136210       3.75252458  T        0
O        4.56388320       3.35852684       1.71938833  T        0
O       14.47344172      10.78888524       5.86627900  T        0
O       14.56649950       3.35415518       1.72998755  T        0
O        4.63564024      10.88010860       5.75040034  T        0
O        4.57057629      10.90684730       1.81033338  T        0
O       14.48619226       3.35576839       5.73058612  T        0
O       14.41205157      10.88075971       1.79581138  T        0
O        4.61647241       3.34859184       5.72314879  T        0
O       11.55416907       8.47464194       3.86772193  T        0
O        7.34616876       8.61794535       3.77875838  T        0
O       11.62476727       5.85312895       3.68150284  T        0
O        7.69276978       5.99025761       3.66978522  T        0
O        9.42328131      10.24007695       3.59835955  T        0
O        9.69049867       4.27840819       3.60229150  T        0
O       13.51672641       7.09074543       5.10480853  T        0
O        5.67438546       7.02988223       5.11490998  T        0
O        5.60462978       7.12632427       2.43902187  T        0
O       13.47741926       7.29347847       2.42945993  T        0
O       14.14102638       7.20879570      -0.07699322  T        0
O        4.96865864       7.23961584      -0.07805716  T        0
Si       6.07190122       2.76999015       1.40691121  T        0
Si      15.84376773      10.03554178       5.41922231  T        0
Si      13.06653360       2.78604913       1.41822174  T        0
Si       3.28044055      10.03047343       5.39751507  T        0
Si       6.01024606      11.52007351       1.35382263  T        0
Si      15.85418642       4.19346491       5.38394363  T        0
Si      12.93449670      11.47400847       1.45489951  T        0
Si       3.27454167       4.20276932       5.37317994  T        0
Si      13.07078956      11.58586123       6.17473938  T        0
Si       3.24867423       4.22371803       2.12983410  T        0
Si       6.10276717      11.51539386       6.10175069  T        0
Si      15.87117798       4.25247760       2.14323905  T        0
Si      12.99292464       2.79750540       6.08888823  T        0
Si       3.22492206      10.05209766       2.17489338  T        0
Si       6.11476348       2.78144836       6.11557642  T        0
Si      15.81521616      10.10010037       2.17513069  T        0
Al      11.16329092      10.21416054       3.96303652  T        0
Si       7.78433230      10.19298752       3.68321961  T        0
Si      11.32123808       4.19968183       3.74495967  T        0
Al       7.88019046       4.14778876       3.76522968  T        0
Si      14.80936440       7.11583522       6.10863934  T        0
Si       4.37068863       7.09758430       6.10566802  T        0
Si       4.31900061       7.14721773       1.43606522  T        0
Si      14.77846529       7.20082456       1.44223278  T        0
Si      12.58217035       7.21657602       3.78889002  T        0
Si       6.55112724       7.19524208       3.75703358  T        0
O        6.58390796       3.30337681       7.60244989  T        0
O       12.47668329       3.23436293       7.58538717  T        0
O        6.64743310      11.04344628       7.58210553  T        0
O       12.41817375      11.10429456       7.60056104  T        0
O       14.15781408       7.14995973       7.61741186  T        0
O        4.99093566       7.14792617       7.62890394  T        0
O        6.24220296      13.01583563      -2.25738475  T        0
O        7.44992709      10.57898536      -5.36660359  T        0
O        7.08144102      10.55433506      -2.67684920  T        0
O        4.43266711      11.11567681      -2.20935436  T        0
O        7.75870307       8.25871413      -3.94047669  T        0
O        9.55457546      10.26179104      -3.69414621  T        0
Si       6.01355464      11.44529586      -1.81735778  T        0
Si       7.95150027       9.91344815      -3.92536578  T        0
H        5.61083456       0.52083913       2.07985367  F        0
H       13.50938118       0.51971906       2.07492992  F        0
H        5.61112307      13.75835362       2.07975607  F        0
H       13.50958039      13.75682243       2.07498241  F        0
H       13.51084140      13.75504172       5.44776650  F        0
H        5.62495998      13.75277707       5.44935724  F        0
H       13.50975252       0.52161770       5.44778410  F        0
H        5.62509051       0.52255101       5.44942550  F        0
H       17.28974254      11.12548174       7.01862795  F        0
H        1.83343022      11.12554006       7.01950242  F        0
H       17.28979000       3.14560285       7.02339196  F        0
H        1.81954193       3.15353441       6.98813474  F        0
H        1.83183800       3.14857954       0.53722786  F        0
H       17.29134854       3.14797220       0.53999843  F        0
H        1.83154049      11.12909684       0.54034962  F        0
H       17.29120144      11.12876736       0.54010345  F        0
H        6.35952436       2.97904956      -0.93427223  F        0
H       12.76076393       2.97683097      -0.93375646  F        0
H       12.76174962      11.29928001      -0.93393629  F        0
H       14.60982961       7.13673871      -0.92783774  F        0
H        4.51175007       7.13509558      -0.92932085  F        0
H        6.35949513       2.97597070       8.47938261  F        0
H       12.76321398       2.97604733       8.47995589  F        0
H        6.35946036      11.30224636       8.48133548  F        0
H       12.76333233      11.30075111       8.47967776  F        0
H       14.61405599       7.13800201       8.47661577  F        0
H        4.50898861       7.14016697       8.47499567  F        0
H        5.62495998      13.75277707      -2.09714276  F        0
H        6.67686405      11.12256578      -5.64493030  F        0
H        3.92376286      10.29502607      -2.09159850  F        0
H        6.99606890       7.65472256      -3.78428573  F        0
H       10.52611047      10.07370688      -3.78446723  F        0
Fe      10.49637642       9.21447187       1.62567366  T        0
Fe       9.54867844       6.34566838       2.82497754  T        1
O        9.09229832       7.82578348       1.40083452  T        2
O       10.44774224       7.21142628       1.18737924  T        3
