141
Lattice="19.123 0.0 0.0 0.0 14.277 0.0 0.0 0.0 7.5465" Properties=species:S:1:pos:R:3:move_mask:L:1:tags:I:1 i=128 E=-2603.9155142701 regions="_JSON [\"Active\"]" n_terminators=32 energy=-954.5608561729937 pbc="F F F"
O        5.98932495       1.11809260       1.40410652  T        0
O       15.76445923       8.50363445       5.87745548  T        0
O       12.95535498       1.13732533       1.56014817  T        0
O        3.47259059       8.48782732       5.73609224  T        0
O        5.77573664      13.16476617       1.32678629  T        0
O       15.71873154       5.81296126       5.80884324  T        0
O       13.05187766      13.13830984       1.47007152  T        0
O        3.64619441       5.80286173       5.55801727  T        0
O       13.12726480      13.15008824       6.11466666  T        0
O        3.28318856       5.70933823       1.69429242  T        0
O        6.27199982      13.02078817       5.49331173  T        0
O       15.62919341       5.78348080       1.75128298  T        0
O       13.13907922       1.10831347       6.13206484  T        0
O        3.32815991       8.39877506       1.74903649  T        0
O        6.08244228       1.11140042       6.08256344  T        0
O       15.64349157       8.47157789       1.72441970  T        0
O        7.27344291       3.35522075       2.38910116  T        0
O       17.17921939      10.78494963       6.10604938  T        0
O       11.89562523       3.49117019       2.44203426  T        0
O        2.00951672      10.72062392       6.19431143  T        0
O        7.03433548      11.13171766       2.59833089  T        0
O       17.18509597       3.55671909       6.13962248  T        0
O       11.97628966      10.75860988       2.41187160  T        0
O        1.96126835       3.85480081       6.31448199  T        0
O       11.88097178      10.87370889       5.14482412  T        0
O        1.95378154       3.37343226       1.47790928  T        0
O        7.16619341      10.49783796       5.24756626  T        0
O       17.15554003       3.56362435       1.41734724  T        0
O       11.96143982       3.32300080       5.06297605  T        0
O        1.88403582      10.65227633       1.38969313  T        0
O        7.09371578       3.50464086       5.12645505  T        0
O       17.21149155      10.63332098       1.38261456  T        0
O        6.61110703       3.29764234      -0.06006228  T        0
O       16.12351592      10.11627871       3.76480787  T        0
O       12.46648802       3.23902640      -0.04380896  T        0
O        2.94591259      10.15220475       3.73568785  T        0
O        6.62257903      11.04125342      -0.02721495  T        0
O       16.10615347       4.11261379       3.78134679  T        0
O       12.50891880      10.98539631      -0.05726743  T        0
O        2.95523455       4.02079706       3.78840282  T        0
O        4.65196703       3.40987554       1.81170085  T        0
O       14.49869485      10.87537389       5.75678076  T        0
O       14.49446711       3.34081864       1.79141982  T        0
O        4.57886249      10.92785968       5.69797640  T        0
O        4.56664813      10.77246815       1.70117174  T        0
O       14.51805497       3.40809323       5.80992490  T        0
O       14.56585175      10.94826931       1.73036674  T        0
O        4.51894755       3.25476782       5.84120188  T        0
O       11.37321038       8.26081977       3.85439567  T        0
O        7.31026460       8.61849246       3.47708526  T        0
O       11.68607959       5.76010649       3.92378448  T        0
O        7.66716910       5.99924759       3.71657987  T        0
O        9.38336419      10.29525788       3.71677650  T        0
O        9.68985775       4.27806581       3.91039500  T        0
O       13.57372256       7.22936129       5.07891101  T        0
O        5.83623489       7.37276519       5.20867106  T        0
O        5.42782418       6.97040119       2.54302419  T        0
O       13.42367596       7.14102999       2.41400339  T        0
O       14.13183082       7.08682078      -0.08184168  T        0
O        4.89804122       7.09192137      -0.03305269  T        0
Si       6.13022477       2.77657559       1.42605458  T        0
Si      15.86566155      10.08169694       5.38747056  T        0
Si      12.99525459       2.78794093       1.44400592  T        0
Si       3.22942956      10.06081838       5.33586928  T        0
Si       5.98046361      11.53232366       1.40218006  T        0
Si      15.87368327       4.23138511       5.40115940  T        0
Si      13.02145011      11.46987086       1.43466886  T        0
Si       3.28145134       4.19674685       5.38166813  T        0
Si      13.00034105      11.48611451       6.10825463  T        0
Si       3.24154478       4.12588305       2.17607552  T        0
Si       6.05989409      11.48621327       6.03871070  T        0
Si      15.83663063       4.21017371       2.16645032  T        0
Si      13.05644115       2.75887883       6.13697883  T        0
Si       3.19722023       9.99067757       2.12189732  T        0
Si       6.07934450       2.77502117       6.12113991  T        0
Si      15.86001144      10.05745608       2.14372990  T        0
Al      11.15624521      10.08597720       3.78208499  T        0
Si       7.80874275      10.18632607       3.66687538  T        0
Si      11.30682558       4.13090046       3.81560752  T        0
Al       7.89869764       4.18148974       3.76177514  T        0
Si      14.84284049       7.17384078       6.10648097  T        0
Si       4.37594044       7.16017618       6.03390049  T        0
Si       4.19822048       7.03935195       1.45401557  T        0
Si      14.74547315       7.13751773       1.44315151  T        0
Si      12.58288467       7.17286247       3.79889002  T        0
Si       6.55244420       7.17357804       3.67175162  T        0
O        6.32636981      13.09221558       9.63490144  T        0
O        3.39274197       5.87657265       9.69471303  T        0
O        3.62985477       8.47428102       9.61427016  T        0
O        7.56546251      10.71574399       9.90379858  T        0
O        2.37811662      10.75621206       8.82434117  T        0
O        6.58473124       3.29951055       7.59958049  T        0
O       12.46560562       3.23227020       7.59194201  T        0
O        2.77988916      10.32944129      11.39461144  T        0
O        6.39347212      11.28983789       7.62422779  T        0
O       12.51334098      10.98785301       7.60274908  T        0
O        4.86236008      10.82083708       9.77415651  T        0
O        1.82493748      13.11023765       7.51407281  T        0
O       -0.04978952      11.22270447       7.89565630  T        0
O        5.93143344       7.00489089       9.85768361  T        0
O       14.17541256       7.10792440       7.60875619  T        0
O        4.74463454       7.09575870       7.61525117  T        0
Si       6.25519312      11.48410915       9.26888831  T        0
Si       3.40636667      10.07591535       9.89505545  T        0
Si       1.54484448      11.47575660       7.59818688  T        0
Si       4.40951425       7.08577729       9.22677602  T        0
H        5.61083456       0.52083913       2.07985367  F        0
H       13.50938118       0.51971906       2.07492992  F        0
H        5.61112307      13.75835362       2.07975607  F        0
H       13.50958039      13.75682243       2.07498241  F        0
H       13.51084140      13.75504172       5.44776650  F        0
H        5.62495998      13.75277707       5.44935724  F        0
H       13.50975252       0.52161770       5.44778410  F        0
H        5.62509051       0.52255101       5.44942550  F        0
H       17.28974254      11.12548174       7.01862795  F        0
H       17.28979000       3.14560285       7.02339196  F        0
H        1.81954193       3.15353441       6.98813474  F        0
H        1.83183800       3.14857954       0.53722786  F        0
H       17.29134854       3.14797220       0.53999843  F        0
H        1.83154049      11.12909684       0.54034962  F        0
H       17.29120144      11.12876736       0.54010345  F        0
H        6.35952436       2.97904956      -0.93427223  F        0
H       12.76076393       2.97683097      -0.93375646  F        0
H        6.36236324      11.29726414      -0.93275871  F        0
H       12.76174962      11.29928001      -0.93393629  F        0
H       14.60982961       7.13673871      -0.92783774  F        0
H        4.51175007       7.13509558      -0.92932085  F        0
H        5.61112307      13.75835362       9.62625607  F        0
H        3.36661743       4.89904760       9.62155888  F        0
H        7.72879001      10.28772525      10.77169866  F        0
H        6.35949513       2.97597070       8.47938261  F        0
H       12.76321398       2.97604733       8.47995589  F        0
H        3.19647477      10.11404518      12.25127207  F        0
H       12.76333233      11.30075111       8.47967776  F        0
H        2.56257806      13.76129914       7.54737584  F        0
H       -0.96427299      11.34215683       7.54753770  F        0
H        6.24001829       7.13882896      10.76907540  F        0
H       14.61405599       7.13800201       8.47661577  F        0
Fe       7.58905361       8.52222330       6.01813498  T        0
Fe       9.75740983       6.60834718       4.51813291  T        1
O        9.03526088       7.45735460       6.01606441  T        2
