138
Lattice="20.102 0.0 0.0 0.0 19.731 0.0 0.0 0.0 13.253" Properties=species:S:1:pos:R:3:move_mask:L:1:tags:I:1 i=77 E=-3472.0240129048 regions="_JSON [\"Active\"]" n_terminators=34 energy=-923.127563418479 pbc="F F F"
O       10.06607419       8.40337926       9.28679197  T        0
O        9.92738842      18.92852769       4.01721040  T        0
O        9.99937834      11.19683770       4.05420802  T        0
O        2.26316838      11.37859732       3.96241313  T        0
O        7.78331690       8.30466785      10.65635351  T        0
O       12.09252806      18.59604808       2.49676169  T        0
O       12.18046718      11.17548178       2.61048540  T        0
O        7.88079480       7.30819438       8.18629390  T        0
O       11.89853336      17.43505560       4.93099759  T        0
O       12.00838500      12.63507697       4.87983417  T        0
O        7.99990272       9.98364315       8.61348446  T        0
O       12.31390527      20.10268743       4.62026816  T        0
O       12.23104370       9.98121417       5.04582159  T        0
O        3.71283949      10.79108850       6.08919568  T        0
O        3.06246268       8.86681528       4.21703202  T        0
O       17.12037289      10.63680055       9.06127465  T        0
O       17.08912990      18.95709599       9.11318329  T        0
O        4.89122224      10.77706506       3.69976869  T        0
O        3.63106913      12.08835827       8.50989222  T        0
O       14.34829453      17.08273431      12.07385997  T        0
O       14.40050233      12.51959253      12.08754392  T        0
O        5.92722744      11.19684091       7.51089093  T        0
O        5.85865038      19.22008664       7.58695038  T        0
O       14.22787598       8.89901911       6.52138385  T        0
O        4.00428145       9.40510715       8.26734290  T        0
O        6.41462761       9.78514273       1.68451430  T        0
O        8.14589443      12.56193356       7.87561560  T        0
O        7.80840819      17.42001241       8.07545228  T        0
O       12.46148730       7.36951129       5.10123017  T        0
O        8.09705254      10.65509309       6.02163980  T        0
O        7.88318369      18.70642907       5.80910070  T        0
O       11.78851251       8.64417860       7.33672116  T        0
O        7.47558525      11.38446796       3.39408584  T        0
O        7.51967897      18.39783807       3.16317075  T        0
O       12.60907283       8.24932951       9.90872395  T        0
O        8.53443274       8.60772417       3.94399432  T        0
O       11.54827818      10.63458572       9.06473712  T        0
O       11.94489742      19.02036303       9.53027791  T        0
O        5.62368817      12.37196913       1.68826684  T        0
O       16.12448380      17.02500266       4.53630824  T        0
O       15.70014343      12.57752058       4.56970163  T        0
O       10.05122394      17.04727907       9.53442118  T        0
O        9.82935497      12.86434064       9.86525702  T        0
O       10.21839831       6.53196299       3.74283784  T        0
O        7.68306521      16.65979125      10.65559145  T        0
O        7.10419765      13.43342270      10.26396085  T        0
O       17.86507846      13.13204308       9.40886302  T        0
O       12.55809531       6.51362037       2.57717609  T        0
O       17.82175686      16.44021840       9.42028308  T        0
O        8.60388214      14.95599467       8.71114917  T        0
O       12.09159442       4.83196379       4.68954682  T        0
O       16.46408437      12.51309730       7.21168497  T        0
O       16.52542505      17.07986874       7.22187582  T        0
O       15.22728458      12.52463134       9.55662262  T        0
O       15.17289151      17.08489370       9.50566667  T        0
O        5.55853452      14.83608472       1.03960247  T        0
O       15.87832044      14.81272462       5.92242395  T        0
O        5.98122107       6.59097939       6.39612488  T        0
O        3.85382374      13.05774884      -0.25957558  T        0
O       13.96051956      13.11738934       6.60317975  T        0
O       14.08784790      16.78667780       6.29964018  T        0
O        7.72017035       4.74561768       7.47297023  T        0
O       12.11440867      15.02338576       5.97695349  T        0
O        8.47906144       6.58965401       5.68232986  T        0
O       11.33341685      13.06369201       7.45506891  T        0
O       11.75992842      17.16212824       7.54358595  T        0
O        7.67677699       6.19005194       3.12113276  T        0
O       12.68398449      13.07542455      10.02005020  T        0
O       12.63915962      16.56587657      10.01261055  T        0
O       14.52020677      14.81279085      10.79379816  T        0
Si       8.45016858       8.49526729       9.15923699  T        0
Si      11.54808797      18.75709071       4.03989025  T        0
Si      11.64292948      11.20871844       4.16346316  T        0
Si       3.50088841      10.43292364       4.50414001  T        0
Si       4.32979929      10.88774018       7.60876174  T        0
Si       7.54583083      11.04428471       7.46540668  T        0
Si       7.45988444      18.86592402       7.37133631  T        0
Si      12.67440630       8.71314705       5.99344601  T        0
Al       8.51695850      10.23779986       4.39596175  T        0
Si       8.34918311      19.21950480       4.32296974  T        0
Si      11.54101809       9.03875487       8.92231747  T        0
Si       6.05105595      11.09809486       2.60568726  T        0
Si       8.52725521      16.55205140       9.24848166  T        0
Si       8.43234809      13.38953645       9.30845412  T        0
Si      11.80561398       6.31501160       4.03434723  T        0
Si      16.64044964      12.20051267       8.82774888  T        0
Si      16.62967604      17.39735739       8.82798712  T        0
Si       5.35053955      13.33845176       0.38998724  T        0
Si      15.52726261      13.22370789       6.07662244  T        0
Si      15.65861953      16.42971489       5.99856098  T        0
Si       7.51597733       6.30175700       6.95280025  T        0
Si      12.41195191      13.43106638       6.24616382  T        0
Si      12.48266798      16.60528461       6.19254649  T        0
Si       8.70348907       7.01573055       4.11864945  T        0
Al      11.38124717      12.34622755       9.17578895  T        0
Si      11.59421667      17.45550658       9.14721289  T        0
Si      14.16605429      13.21671264      10.60316804  T        0
Si      14.17002415      16.38649655      10.59291553  T        0
O        8.39937652      20.06842376       8.00517542  T        0
O        8.03367510      20.83683166       4.30230603  T        0
O        6.42828025      13.06475724      -0.82753603  T        0
H        1.81269882      11.30123319       3.09859993  F        0
H        7.07153747       8.87866318      10.98534327  F        0
H       13.03074803      18.74401529       2.26762503  F        0
H       13.03074804      10.85204106       2.26762503  F        0
H       12.34310542      20.30287261       5.56688324  F        0
H        3.60112680       8.06005012       4.30646574  F        0
H       16.64303307       9.81912404       8.84117322  F        0
H       16.64304187      19.77694965       8.84122497  F        0
H        4.03182275      12.92715973       8.82439874  F        0
H       14.40563884      18.04556895      12.19637069  F        0
H       14.40563885      11.55048737      12.19637067  F        0
H        5.06295559      18.75104696       7.26028496  F        0
H       15.03932990       8.88569483       5.99268334  F        0
H        4.11249823       9.08086468       9.18193973  F        0
H        5.72719027       9.20254625       1.33756862  F        0
H        6.55301950      18.28668004       3.13509397  F        0
H       13.54926599       8.42132791      10.11787432  F        0
H       11.52310955      19.83515307       9.21116341  F        0
H       15.87290964      17.87210703       4.12309272  F        0
H       15.87290964      11.72394929       4.12309273  F        0
H        6.74596320      16.92620537      10.74076342  F        0
H        6.74596321      12.66985099      10.74076342  F        0
H       18.05303808      13.25020103      10.35989921  F        0
H       13.35632228       7.06085325       2.51220488  F        0
H       18.05303809      16.34585533      10.35989921  F        0
H       11.61525895       4.01919395       4.45233654  F        0
H        5.67587981      15.71242072       0.63388066  F        0
H        5.18772305       6.48136951       6.94399129  F        0
H        2.98936131      13.24709329       0.14601228  F        0
H        7.92514400       4.01763560       6.85279547  F        0
H        6.78202892       6.52695113       2.93525138  F        0
H        8.32625906      20.60985804       8.81306681  F        0
H        8.66651872      21.47399316       3.93953912  F        0
H        6.36643797      12.40218664      -1.54340896  F        0
Fe       8.69615538      12.88577716       4.02092820  T        0
Fe       9.58020206      13.99021631       6.80783528  T        1
O        8.91556043      14.29846443       5.12204566  T        2
