136
Lattice="24.397 0.0 0.0 0.0 24.397 0.0 0.0 0.0 24.397" Properties=species:S:1:pos:R:3:move_mask:L:1:tags:I:1 i=41 E=-6943.8331748197 regions="_JSON [\"Active\"]" n_terminators=32 energy=-913.1080729100589 pbc="F F F"
O       21.60151001       2.60555968       0.13222920  T        0
O       11.88779344       9.61133938       2.72661033  T        0
O       21.83683555       6.22370084       3.47669104  T        0
O       15.68196781       9.73387233       6.23577960  T        0
O       20.85558111      12.41309912       3.68389762  T        0
O       15.55026523       6.28014697       9.72100354  T        0
O       14.82479095       9.84272257      -0.32609295  T        0
O       21.90147988      -0.16356566       2.62249650  T        0
O       18.19208566       9.70744930       3.47641541  T        0
O       21.96121827       3.42008275       6.37180381  T        0
O       18.43364780       3.30479808       9.68383512  T        0
O       23.73257296       1.61963994       1.91583363  T        0
O       13.75371254      11.21965080       1.74375665  T        0
O       22.67003217       5.50026735       7.95014844  T        0
O       22.69017708       8.11759749       5.46324256  T        0
O       17.66888211      10.50434552       7.90428705  T        0
O       20.16442610      10.38205379       5.20933623  T        0
O       23.47495137       4.28340920       4.36804078  T        0
O       18.86129653      14.19192049       4.22423310  T        0
O       16.37500257      11.47108289       4.30806512  T        0
O       17.63954499       7.85929340      10.55823583  T        0
O       19.97550362       5.35499369      10.67628298  T        0
O       12.09667283      12.18171499       3.67460469  T        0
O       20.86294008       5.89306542       6.13455441  T        0
O       18.18457480       8.80517301       5.99810719  T        0
O       21.92596191      12.21431142       6.17633628  T        0
O       20.91931998       0.01841860       0.10680279  T        0
O       24.49721841       2.46557719       6.10474209  T        0
O       24.38562771       6.14080015       2.67786855  T        0
O       18.34217572      12.22694551       2.63713933  T        0
O       14.57882197      12.21061123       6.20285129  T        0
O       18.11467062       5.88392789       8.92441053  T        0
O       22.62032046       4.32017302       1.83007855  T        0
O       13.90207296      10.46088602       4.33899731  T        0
O       19.97227094       7.88973724       4.24026160  T        0
O       16.64688376       7.97983091       8.03434374  T        0
O       22.71728355      10.54287397       4.35075809  T        0
O       20.19256566      14.04314460       1.79937353  T        0
O       16.36504580      10.61932763       1.76413048  T        0
O       22.67842631       1.71597623       4.39031982  T        0
O       20.23421037       4.32253555       8.17797175  T        0
Al      23.25792399       2.92552068       0.90219616  T        0
Si      12.90208600      10.86954695       3.10109789  T        0
Al      21.39901315       7.06904284       5.00741009  T        0
Si      17.02265462       9.24092219       7.05397881  T        0
Si      21.41084871      11.39336339       4.84655577  T        0
Si      15.08426588      11.01313385       0.81599314  T        0
Si      23.17706342       0.74325465       3.15590725  T        0
Si      19.12713315       9.21744270       4.72651507  T        0
Si      21.41592502       4.78066648       7.13930124  T        0
Si      23.64423437       9.27410687       4.86014134  T        0
Si      23.14479372       2.98118820       5.32230227  T        0
Si      17.31349289      11.02087938       3.03728709  T        0
Si      19.19559815       4.73259722       9.35972735  T        0
Si      15.14843701      10.97031079       5.28320086  T        0
Si      19.56503544      13.22313513       3.08130766  T        0
Si      23.09806419       5.24396400       3.10437420  T        0
Si      16.98620176       6.99852691       9.30958953  T        0
O       24.52949330       8.68053255       3.58710245  T        0
O       28.00444927       8.85251866       0.16413862  T        0
O       28.88510874       6.77758432       1.73536358  T        0
O       26.24243937       6.70261985       4.36857410  T        0
O       24.69481523       9.89488495       5.97727597  T        0
O       26.34990419       7.75210302       1.86301045  T        0
Si      27.61861223       7.41305462       0.88589055  T        0
Si      25.37579990       7.36221777       3.12278732  T        0
O       28.01092602       5.93011884      -2.80209399  T        0
O       24.67894758       2.37633023      -2.72931221  T        0
O       26.23910133       1.73256868      -0.61699103  T        0
O       28.92449519       4.38961899      -0.70927896  T        0
O       27.22425205       6.28640664      -0.23118189  T        0
O       24.29897950      -0.20307373      -3.47778329  T        0
O       26.43793576       4.17248183      -1.79056967  T        0
Si      27.64270056       5.19099465      -1.37177661  T        0
Si      25.41684364       2.96213775      -1.36519837  T        0
O       18.12137487       2.38217134      -3.59357479  T        0
O       20.82709802       2.41619921      -6.22689026  T        0
O       20.08524634       0.72065457      -4.31651820  T        0
O       22.61911506       0.98586448      -1.72636784  T        0
O       18.87726675       1.84610195      -8.04688014  T        0
O       16.30180859       1.87349870      -5.54516515  T        0
O       24.33974898       3.47720164      -0.30194120  T        0
O       15.45508396      12.46364405       0.13828819  T        0
O       18.28131646      -0.09279496      -2.46218968  T        0
O       21.94572215      -0.06649585      -6.13245908  T        0
O       18.33410589       3.45000205      -6.06645707  T        0
O       20.02303722       1.68791797      -1.81148662  T        0
O       22.59611035       1.65544469      -4.30221261  T        0
O       20.15074012       4.29999163      -7.91334398  T        0
O       16.49569759       4.31256371      -4.25513508  T        0
Si      19.11400651       1.18343351      -3.07857516  T        0
Si      21.35007401       1.19149291      -5.26103310  T        0
Si      23.56993842       1.20952445      -3.05386869  T        0
Si      19.54919935       3.00964624      -7.08180033  T        0
Si      21.28153241       1.29551977      -0.84352609  T        0
Si      17.29674552       3.01171292      -4.87300290  T        0
O       22.54240085      -1.92987371       0.61317448  T        0
O       24.32033556      -0.25701155       3.80335301  T        0
O       20.09303336      -1.85221502       1.91150520  T        0
Si      21.37069602      -0.99684118       1.32081195  T        0
H       11.67127885       9.33842242       1.81195952  F        0
H       15.43757911       5.57209275      10.38640946  F        0
H       14.01041460       9.33842077      -0.52721165  F        0
H       17.77043311       3.23924387      10.38640412  F        0
H       23.12591797       5.02704618       8.65412107  F        0
H       17.22544067      10.92750153       8.65411313  F        0
H       19.36965547      14.75328399       4.82834093  F        0
H       17.22544070       8.65411150      10.92750362  F        0
H       20.85245744       5.02708867      10.92752556  F        0
H       11.39908935      12.70105073       3.24464026  F        0
H       21.54216027      12.99764967       6.60187561  F        0
H       24.89951425       2.85451703       6.89840128  F        0
H       15.05290853      12.70105704       6.89848521  F        0
H       19.78591980      14.73191782       1.24430354  F        0
H       28.68412771       8.95914275      -0.52719976  F        0
H       29.22534432       7.17131743       2.55494170  F        0
H       26.95194123       7.17131746       4.82834527  F        0
H       25.19630608       9.34383456       6.60185911  F        0
H       28.68420928       6.62630035      -2.86021198  F        0
H       26.95192867       1.27083937      -1.07240246  F        0
H       29.22533941       3.54426653      -1.07238230  F        0
H       25.19622735      -0.50276655      -3.24494277  F        0
H       19.36968740       1.27081557      -8.65438303  F        0
H       15.74261410       1.27081536      -5.02730892  F        0
H       15.44299305      12.70103244      -0.79954860  F        0
H       17.49833355      -0.50278089      -2.85477948  F        0
H       21.54221652      -0.50278066      -6.89866328  F        0
H       19.78593015       4.85484827      -8.63303166  F        0
H       15.76396555       4.85484859      -4.61106623  F        0
H       23.12589418      -2.55519498       1.07214050  F        0
H       24.89950013      -0.79949361       3.24468082  F        0
H       19.54187317      -2.53384464       1.48839915  F        0
Fe      20.30424605       7.05772855       2.32393385  T        0
Fe      20.71457926       4.20827127       0.98609497  T        1
O       20.88889601       8.29039009       1.36226876  T        2
O       19.61864367       5.53896069       1.53783499  T        3
