147
Lattice="19.123 0.0 0.0 0.0 14.277 0.0 0.0 0.0 7.5465" Properties=species:S:1:pos:R:3:move_mask:L:1:tags:I:1 i=128 E=-2603.9155142701 regions="_JSON [\"Active\"]" n_terminators=30 energy=-1012.0813695452898 pbc="F F F"
O       15.87216023       8.41459314       5.50654181  T        0
O       13.01731022       1.35316241       1.76483974  T        0
O       15.33708818       5.87668504       5.87231718  T        0
O       15.77765384       5.86323608       1.58829397  T        0
O       12.83811118       1.04964775       5.92552891  T        0
O       15.93864527       8.43574366       1.93774150  T        0
O       11.71680949       3.62076650       2.38222419  T        0
O       17.03603691       3.38228386       6.19474193  T        0
O       16.93562846       3.38315469       1.27937939  T        0
O       11.89141098       3.47234572       5.07370527  T        0
O       12.47088347       3.13074573      -0.17019712  T        0
O       16.06834825       4.13867477       3.63628949  T        0
O       14.30786974       3.66955422       1.64825490  T        0
O       14.50464310       3.03003954       5.61328282  T        0
O       11.41089715       8.44578212       3.46581632  T        0
O       17.31087889       1.25653194      -0.12632475  T        0
O       11.68127068       5.84075284       3.83325507  T        0
O        9.55380971       4.10931167       4.00703420  T        0
O       13.34427864       7.52467638       5.13258195  T        0
O       15.55940124       0.12472207       1.32433497  T        0
O       15.33734201       0.12341145       6.36621235  T        0
O       13.57371278       7.16993977       2.47187440  T        0
O       14.43177696       7.43785548      -0.06738270  T        0
O       14.47149569       0.22370573       3.96575209  T        0
Si      12.85760340       2.91194724       1.42576720  T        0
Al      15.74856099       4.31368117       5.35344171  T        0
Si      15.73439091       4.30996085       2.07679492  T        0
Si      12.95082270       2.69622906       6.05136460  T        0
Si      17.62638264       2.89127796      -0.17384542  T        0
Si      11.17972097       4.26918116       3.79997358  T        0
Si      14.72245778       7.35038636       6.02830871  T        0
Al      13.98560717       0.00482110       2.25697033  T        0
Si      13.91896888      -0.08793814       5.45942571  T        0
Si      14.89057449       7.24696022       1.49964746  T        0
Si      12.51601704       7.25183756       3.74196920  T        0
Si      16.31694777      -0.09918833      -0.12650409  T        0
O       19.20800699       3.18444603       7.91022944  T        0
O       21.25639638       3.87318713       1.24048879  T        0
O       21.18974779       1.26772222       0.39338258  T        0
O       19.24702027       3.06123556      -0.18477474  T        0
Si      20.89270747       2.84588141      -0.00299188  T        0
O       21.69975250       3.16620318      -1.41169079  T        0
O       19.19805298      -3.33502124       7.53128689  T        0
O       19.22005873      -3.28891153      -0.29261193  T        0
O       13.05940382       1.18605007       9.48951409  T        0
O       15.44701482       5.89218977       9.43183769  T        0
O       15.59786370       8.45949435       9.90441437  T        0
O       11.56947728       3.32117148      10.07468104  T        0
O       16.78658736       3.64834136       8.84560141  T        0
O       12.68023697       3.07724494       7.63034332  T        0
O       16.33672493       4.20256513      11.36609554  T        0
O       14.25636255       3.54861239       9.76410485  T        0
O       17.30359326       1.25063753       7.70537433  T        0
O       15.37840305      -0.08194385       9.00777041  T        0
O       13.12519605       7.23688476       9.83418595  T        0
O       14.37690366       7.62320915       7.61343401  T        0
O       14.59541204       0.01600444      11.42282686  T        0
Si      12.89655891       2.80968292       9.24287822  T        0
Si      15.69211727       4.33089693       9.85673084  T        0
Si      17.61087363       2.88712799       7.65309284  T        0
Si      14.00761383      -0.08615716       9.89320042  T        0
Si      14.64934934       7.30731104       9.19367986  T        0
Si      16.32597796      -0.05694835       7.70526517  T        0
O       15.61202049       8.44414912      -2.33911892  T        0
O       15.49664612       5.87436907      -2.00776226  T        0
O       13.05546839       1.17501971      -1.91618912  T        0
O       16.87139153       3.66295383      -1.36903177  T        0
O       11.66223913       3.17490570      -2.77829247  T        0
O       16.33159587       4.03126357      -3.83443830  T        0
O       14.27994005       3.52767805      -2.11083067  T        0
O       13.14612829       7.19975199      -2.30384119  T        0
O       15.32108081      -0.10640860      -1.39147768  T        0
O       14.54728989      -0.03122195      -3.86389659  T        0
Si      15.69736430       4.29133246      -2.34294282  T        0
Si      12.86474385       2.79065998      -1.72411315  T        0
Si      14.67677744       7.25786924      -1.67555510  T        0
Si      13.96542095      -0.11352592      -2.32566741  T        0
O       13.21369635      -1.48974225       9.61386359  T        0
O       11.60393884      -3.64188593       9.88676329  T        0
O       17.13177337      -3.75940847       9.04028529  T        0
O       12.85254553      -3.25856725       7.64263439  T        0
O       14.24310228      -4.01321458       9.87941194  T        0
O       17.20587681      -1.42311414       7.62037638  T        0
Si      13.00919047      -3.08212557       9.26023134  T        0
Si      17.59864608      -3.02868666       7.61951302  T        0
O       15.97831592      -6.11090918       5.66599703  T        0
O       13.26303019      -1.53698036       1.99960623  T        0
O       13.30136128      -1.55445196       5.68665923  T        0
O       15.97651157      -6.06494577       1.75395760  T        0
O       16.89718184      -3.68977099       6.29934637  T        0
O       11.83797918      -3.77162633       2.48496116  T        0
O       11.78839233      -3.70166125       5.17720176  T        0
O       17.04990885      -3.65667125       1.32745030  T        0
O       16.25271767      -4.23607056       3.75646265  T        0
O       12.64041354      -3.18446229      -0.01000272  T        0
O       14.35111986      -4.00279087       5.59690059  T        0
O       14.39790399      -3.94098383       1.82791056  T        0
O       11.33333608      -6.05131806       3.87104828  T        0
O       17.26570262      -1.41597374      -0.10652904  T        0
O        9.54538983      -3.99720608       3.90723624  T        0
Si      15.87489525      -4.50441169       5.32400312  T        0
Si      13.02452710      -3.06785792       1.58770006  T        0
Si      13.04879072      -3.13486614       6.02814971  T        0
Si      15.89882786      -4.46551612       2.16881540  T        0
Si      11.13105247      -4.40107646       3.82930885  T        0
Si      17.60855129      -3.03482153      -0.08473403  T        0
O       15.73334892      -6.07843464      -2.28605976  T        0
O       13.10946641      -1.47250446      -2.04184563  T        0
O       16.82972595      -3.77183742      -1.31294943  T        0
O       11.55911689      -3.67683110      -2.33180617  T        0
O       16.29728368      -3.95550246      -3.83305456  T        0
O       14.24644681      -3.87388673      -2.03880661  T        0
Si      15.75241993      -4.42885645      -2.35398837  T        0
Si      12.90158274      -3.04873537      -1.61454668  T        0
H       15.75671561       9.37610020       5.45468838  F        0
H       15.75699573       9.38061947       2.07980242  F        0
H       11.31595404       9.37380971       3.76235534  F        0
H        8.59637561       4.20354031       3.76204115  F        0
H       20.08726577       2.93486642       7.54597012  F        0
H       22.00636260       3.98381786       1.86150429  F        0
H       21.68544240       0.51556882       0.00084209  F        0
H       21.98145514       3.97853683      -1.88343379  F        0
H       20.08739461      -2.93488337       7.54749186  F        0
H       20.08739461      -2.93488337       0.00099186  F        0
H       15.75699573       9.38061947       9.62630242  F        0
H       11.39369377       3.98884644      10.77146895  F        0
H       15.92754156       4.15729643      12.25107281  F        0
H       12.88235039       7.13795337      10.76981689  F        0
H       14.07270598       0.00010018      12.23669175  F        0
H       15.75671561       9.37610020      -2.09181162  F        0
H       11.39412799       3.98861071      -3.24188863  F        0
H       15.92661844       4.15901570      -4.70770176  F        0
H       12.88191441       7.13773895      -3.23957932  F        0
H       14.07160463      -0.00015943      -4.71417255  F        0
H       11.39439525      -3.98966818      10.77116771  F        0
H       16.24088130      -3.98173953       9.41338238  F        0
H       15.20026252      -3.97967031       9.62683702  F        0
H       15.17320598      -6.62175386       5.84596239  F        0
H       15.17712900      -6.61799919       1.68693573  F        0
H       12.12595522      -6.62290057       3.76264176  F        0
H        8.59739021      -4.20337067       3.76217937  F        0
H       15.17320598      -6.62175386      -1.70053761  F        0
H       11.39521725      -3.98937216      -3.24237523  F        0
H       15.92569105      -4.16115943      -4.70878458  F        0
Fe      16.94365996       1.39253406       2.21116936  T        0
Fe      16.15331181       1.65375980       5.06742571  T        1
O       17.49045935       1.16369481       3.90360984  T        2
