138
Lattice="20.102 0.0 0.0 0.0 19.731 0.0 0.0 0.0 13.253" Properties=species:S:1:pos:R:3:move_mask:L:1:tags:I:1 i=77 E=-3472.0240129048 regions="_JSON [\"Active\"]" n_terminators=34 energy=-923.0169060237437 pbc="F F F"
O       10.03731752       8.37093642       9.38350385  T        0
O        9.94988313      18.76835389       4.07390483  T        0
O       10.14293150      11.32630912       4.01973494  T        0
O        2.34710412      11.38339142       3.90523904  T        0
O        7.56806741       8.37522474      10.46329962  T        0
O       12.11735575      18.52267195       2.54058121  T        0
O       12.53520242      11.27503331       2.86260640  T        0
O        7.93845135       7.30137951       8.07853360  T        0
O       12.05767950      17.42379986       5.01088513  T        0
O       12.19833013      12.64255204       5.10512934  T        0
O        8.14536045       9.94815956       8.41615140  T        0
O       12.24077150      20.11448601       4.62325562  T        0
O       12.14713516       9.97614215       5.19355624  T        0
O        3.85025657      10.70789868       5.90913978  T        0
O        6.30122449       8.51812464      12.75003347  T        0
O       13.47203944      10.88577281       0.41678796  T        0
O        3.32966916       8.89656708       3.89017821  T        0
O        6.12612802      10.56181495      10.87530085  T        0
O       13.86281608       9.06338997       2.48910921  T        0
O        4.98941178      10.95449061       3.51017520  T        0
O        4.88771784       8.29227998      10.46038778  T        0
O       15.20157921      11.38163273       2.37538495  T        0
O        3.80688106      12.34121495       8.06055961  T        0
O        6.04147963      11.15374906       7.30557429  T        0
O        5.84336455      19.25112375       7.57505765  T        0
O       14.23266780       8.83604037       6.52826678  T        0
O        4.08171387       9.68571229       8.33253017  T        0
O        6.33737547       9.95568387       1.36891748  T        0
O        8.19154684      12.55024454       7.91685667  T        0
O        7.71410594      17.38885484       8.08467295  T        0
O       12.36185297       7.34268722       5.20131814  T        0
O        8.25093273      10.80516545       5.89736339  T        0
O        7.87577187      18.67051294       5.82658300  T        0
O       11.83921590       8.56569870       7.45450990  T        0
O        7.63289645      11.33151268       3.26200349  T        0
O        2.24397573       8.35514525       9.79162214  T        0
O        7.52224103      18.39553711       3.17180988  T        0
O       12.57163513       8.38833807      10.07917129  T        0
O        8.72871888       8.62699134       3.92490471  T        0
O       11.39277092      10.62634341       8.99781947  T        0
O       11.91271164      19.03703862       9.61598430  T        0
O        6.02729568      12.58982841       1.60764064  T        0
O        3.77653078       6.98954717       8.32663114  T        0
O        9.97552557      17.14258216       9.51078745  T        0
O       10.24858686      12.87975328       9.90790798  T        0
O       10.28046117       6.47716218       3.65852208  T        0
O        7.70192832      16.76469895      10.71893326  T        0
O        7.40289729      12.93273186      10.70516053  T        0
O       12.79390827       6.61799372       2.72718217  T        0
O        8.50549789      14.98130254       8.81837144  T        0
O       12.17419849       4.79928029       4.60374722  T        0
O        5.90126590      12.14694973      12.85071967  T        0
O       13.92590367       7.50368548       0.43727314  T        0
O        4.75633502      12.81949471      10.51626739  T        0
O       15.49985504       6.90758412       2.48300393  T        0
O        5.06651378      14.95503855       0.67705471  T        0
O        5.96868074       6.59622480       6.35485583  T        0
O        3.78358960      12.69220585       0.21841176  T        0
O       14.16447872      13.24087243       6.91936601  T        0
O       14.19518735      16.92578324       6.60668219  T        0
O        7.71324498       4.76312841       7.44167500  T        0
O       12.29673184      15.03645198       6.14623422  T        0
O        8.44757389       6.54008925       5.56033800  T        0
O       11.69883361      12.96004165       7.72185191  T        0
O       11.80000249      17.24217654       7.61149305  T        0
O        7.73254088       6.30543650       2.96364128  T        0
O        2.18879793      13.38077473       9.97635215  T        0
O       12.93653358      12.35008332      10.08120655  T        0
O       12.36404805      16.43381443      10.16455576  T        0
O        4.10831752      14.85984410       8.83464975  T        0
Si       8.43573650       8.49001873       9.08565927  T        0
Si      11.58618352      18.69490459       4.08933796  T        0
Si      11.76864637      11.28348069       4.30380403  T        0
Si       3.64271435      10.46246341       4.31474627  T        0
Si       6.21236343       8.96310763      11.17538686  T        0
Si      13.77633264      10.62947493       2.00616635  T        0
Si       4.43714766      10.97566548       7.40952950  T        0
Si       7.66242604      11.08047010       7.36465698  T        0
Si       7.43900334      18.85547236       7.38226914  T        0
Si      12.65584175       8.68518688       6.06521600  T        0
Al       8.68592209      10.27222784       4.31281529  T        0
Si       8.38631962      19.16662156       4.34792864  T        0
Si      11.50046766       9.00538201       8.99484687  T        0
Si       6.19852231      11.19408040       2.44704454  T        0
Si       3.79141993       8.36531597       9.24812284  T        0
Si       8.47816219      16.57584010       9.28358030  T        0
Al       8.61024055      13.26580618       9.52596549  T        0
Si      11.86087210       6.31173761       4.04138513  T        0
Si       6.08705962      12.15273998      11.21119791  T        0
Si      14.01077065       7.49081968       2.07366570  T        0
Si       5.29032309      13.35794807       0.35251957  T        0
Si       7.52970499       6.29563646       6.87332788  T        0
Si      12.59163053      13.45777905       6.46741166  T        0
Si      12.59479015      16.63105713       6.32767856  T        0
Si       8.77616934       7.02088922       4.02719131  T        0
Si      11.54786559      12.23045095       9.20770129  T        0
Si      11.53840389      17.48347074       9.20757776  T        0
Si       3.72373122      13.33767787       9.36630098  T        0
O        8.40129110      20.02840839       8.03289463  T        0
O        8.12738098      20.79390911       4.37046503  T        0
O        6.17642299      13.21317426      -1.03347553  T        0
H        1.81269882      11.30123319       3.09859993  F        0
H       13.03074803      18.74401529       2.26762503  F        0
H       12.34310542      20.30287261       5.56688324  F        0
H        6.01931354       8.91222751      13.59787507  F        0
H       14.08297195      10.81847671      -0.34490677  F        0
H        3.60112680       8.06005012       4.30646574  F        0
H       15.58095515      11.20568437       3.25070227  F        0
H        5.06295559      18.75104696       7.26028496  F        0
H       15.03932990       8.88569483       5.99268334  F        0
H        5.72719027       9.20254625       1.33756862  F        0
H        1.92726146       8.79770260      10.59110356  F        0
H        6.55301950      18.28668004       3.13509397  F        0
H       13.54926599       8.42132791      10.11787432  F        0
H       11.52310955      19.83515307       9.21116341  F        0
H        4.51576461       6.77574371       7.71911054  F        0
H        6.74596320      16.92620537      10.74076342  F        0
H       11.61525895       4.01919395       4.45233654  F        0
H        5.86807409      12.98161584      13.33116226  F        0
H       14.23421140       6.74908840      -0.07819396  F        0
H       15.83774429       6.73639486       3.37716865  F        0
H        5.67587981      15.71242072       0.63388066  F        0
H        5.18772305       6.48136951       6.94399129  F        0
H        2.98936131      13.24709329       0.14601228  F        0
H       14.91456245      13.24933472       6.30897701  F        0
H       14.91456244      16.34672163       6.30897701  F        0
H        7.92514400       4.01763560       6.85279547  F        0
H        6.78202892       6.52695113       2.93525138  F        0
H        1.73086689      12.60761804      10.35624453  F        0
H       13.32025657      13.20375310      10.31771692  F        0
H       13.32025658      16.39230324      10.31771692  F        0
H        4.05997682      15.72757570       9.28699687  F        0
H        8.32625906      20.60985804       8.81306681  F        0
H        8.66651872      21.47399316       3.93953912  F        0
H        6.36643797      12.40218664      -1.54340896  F        0
Fe       8.73146188      12.88892898       4.06960429  T        0
Fe       8.39160637      14.34564884       6.88897314  T        1
O        8.49405692      14.38023509       5.06952112  T        2
