133
Lattice="20.102 0.0 0.0 0.0 19.731 0.0 0.0 0.0 13.253" Properties=species:S:1:pos:R:3:move_mask:L:1:tags:I:1 i=77 E=-3472.0240129048 regions="_JSON [\"Active\"]" n_terminators=34 energy=-879.8535026029299 pbc="F F F"
O       11.69815946      16.86591453       4.80998900  T        0
O       11.91049529      12.74449087       4.73320603  T        0
O        6.54222060      18.90168692      11.22480372  T        0
O        6.91077320      10.73115385      10.94054294  T        0
O       16.09564697      10.61366391       8.98143711  T        0
O       16.62058722      18.78289165       9.09306453  T        0
O       14.33850748      17.40726789      11.92425656  T        0
O       14.17526673      11.93603878      11.83175940  T        0
O        5.76988930      19.12563239       6.70223476  T        0
O       16.13564543      19.06266513      13.15905747  T        0
O       16.13881862      10.57772576      13.19396904  T        0
O       14.17970601      20.01360500      11.50310591  T        0
O       14.36141862       9.19113846      11.64870440  T        0
O        7.55006657      12.41209223       7.67254379  T        0
O        7.71184169      17.40481679       7.47406453  T        0
O        8.22716732      19.48585179       5.71504062  T        0
O       11.85351868      10.63360848       9.47610790  T        0
O       11.71609255      19.08104576       9.13169672  T        0
O       16.30673284      17.11227957       4.55608791  T        0
O       16.34261856      12.37248385       4.67362846  T        0
O        9.99292602      17.00563683       9.27995016  T        0
O        9.81322187      12.39834396       9.14254853  T        0
O        7.34663034      16.50973007      10.27406422  T        0
O        7.45113015      13.14548868      10.28077511  T        0
O       17.84026629      12.49005018       9.77817229  T        0
O       17.74495425      16.33496340       9.43902475  T        0
O        8.56113322      14.73912659       8.63512270  T        0
O        5.92481571      16.56407314      12.44332185  T        0
O        5.99788930      12.90599669      12.41660224  T        0
O       16.64687810      12.67093347       7.29985375  T        0
O       16.44842299      16.87525907       7.23230521  T        0
O        4.76566114      17.39718535      10.10584047  T        0
O        4.85608978      12.23600568      10.05064942  T        0
O       15.19316120      13.06817012       9.43136861  T        0
O       15.06240134      16.64924096       9.48437002  T        0
O       15.91856361      14.74871534       5.74917214  T        0
O       14.16850706      12.79026008       6.23644611  T        0
O       14.10839326      16.73682244       5.98998962  T        0
O       12.32394636      14.75619448       6.29939110  T        0
O       11.81695755      12.37107692       7.39276520  T        0
O       11.96874464      17.08485371       7.46780015  T        0
O       12.26784144      13.15610178       9.93237818  T        0
O       12.44332834      16.70264235      10.08699804  T        0
O       13.78826013      14.87995771      11.17623494  T        0
Si      14.59508640      18.88239172      12.59604262  T        0
Si      14.59933678      10.55701683      12.56334166  T        0
Si       7.38566605      18.92942717       7.01986315  T        0
Al       8.40708401      16.50073316       8.76174091  T        0
Si       8.39339129      13.15619054       8.86224821  T        0
Si       6.13949955      17.36303934      11.02144525  T        0
Si       6.23433236      12.21707418      10.95346199  T        0
Si      16.45927647      12.23316648       8.88630034  T        0
Si      16.47399847      17.17980570       8.82178564  T        0
Si      15.76024297      13.13831344       6.00638796  T        0
Si      15.69429525      16.35202794       5.87989358  T        0
Si      12.58204569      13.15481717       6.17358126  T        0
Si      12.53426578      16.35681192       6.13314951  T        0
Si      11.42583546      12.12735537       8.95770815  T        0
Si      11.48157870      17.49481636       8.95728900  T        0
Al      13.97451255      13.15325187      10.63751718  T        0
Si      13.99222791      16.42285025      10.67690716  T        0
O       14.01380296      20.74159882      16.00041984  T        0
O       10.01881817      21.15792173       9.25918958  T        0
O        7.66470622      21.19005624      10.51662525  T        0
O       17.94438957      21.11493945       9.24055982  T        0
O        7.93730583      22.67695698       8.40204101  T        0
O        7.85625111      19.94992681       8.21113462  T        0
O        6.62401940      20.99348332      12.90431423  T        0
O       16.70077789      20.55342734       7.01893019  T        0
O        4.92231983      21.05180346      10.88710319  T        0
O       15.20801336      21.01294027       9.23839643  T        0
O       11.68027236      21.06189174       7.24282503  T        0
O       12.64820384      21.40980342       9.77771835  T        0
O       14.55146221      22.66936283      11.19953628  T        0
Si       8.39070354      21.23774983       9.05027296  T        0
Si       6.42171322      20.54174531      11.34070577  T        0
Si      16.59575412      20.37267925       8.64982387  T        0
Si      11.51751609      20.67694583       8.83791333  T        0
Si      14.13581362      21.26580455      10.44894294  T        0
O       12.08472333      18.75807945      15.95524605  T        0
O       12.09079276      10.90758871      15.91995927  T        0
O       13.67191832      19.05888372      13.92143951  T        0
O       13.70754987      10.36360596      13.93307122  T        0
O       13.88478620       8.82771423      16.12298561  T        0
O       14.64215446      18.18969292      16.35704387  T        0
O       14.63520778      11.37798677      16.36223127  T        0
O        6.07462307      12.17248588      14.92705614  T        0
O        6.06500447      17.28979455      15.00688841  T        0
O        5.45884315      14.74338148      14.25686397  T        0
O        3.66603986      16.76690178      13.95949143  T        0
O        3.68602637      12.72919080      13.83999655  T        0
Si      13.61782827      19.19789195      15.55569149  T        0
Si      13.60883492      10.36296185      15.55985533  T        0
Si       5.26250449      16.34475545      13.93927570  T        0
Si       5.28247613      13.15342729      13.88622467  T        0
H       11.77741499      17.76721957       4.45015374  F        0
H       11.77741500      11.82883679       4.45015372  F        0
H        6.59189033       9.81912404      11.03827922  F        0
H       16.64303307       9.81912404       8.84117322  F        0
H        5.06295559      18.75104696       7.26028496  F        0
H       16.97340650      18.78964577      12.75613404  F        0
H       16.97340651      10.80641058      12.75613404  F        0
H       14.16364097       9.08086469      10.69751272  F        0
H        7.69777211      11.47779022       7.44841170  F        0
H        8.50665683      19.01129957       4.91774358  F        0
H       11.52310774       9.76092419       9.21110646  F        0
H       15.87290964      17.87210703       4.12309272  F        0
H       15.87290964      11.72394929       4.12309273  F        0
H       18.05303808      13.25020103      10.35989921  F        0
H       18.05303809      16.34585533      10.35989921  F        0
H        4.26454119      16.60174699       9.87579966  F        0
H        4.26454119      12.99430937       9.87579967  F        0
H       13.65226955      21.53630200      15.57301841  F        0
H       18.28958667      21.16688107      10.15436837  F        0
H        7.84356087      22.87259074       7.45668424  F        0
H        6.01931354      20.68412461      13.59787507  F        0
H       16.07044730      20.68412712       6.28158542  F        0
H        4.52133035      21.07133226      10.00226603  F        0
H       12.20788616      20.61981982       6.55602502  F        0
H       14.56690736      22.82060840      12.16034191  F        0
H       11.86384156      18.29482316      16.78088422  F        0
H       11.86384157      11.30123319      16.78088421  F        0
H       13.65226955       8.06005012      15.57301841  F        0
H       15.58095514      18.39037197      16.50370227  F        0
H       15.58095515      11.20568437      16.50370227  F        0
H        5.82176689      11.72394931      15.75639142  F        0
H        5.82176689      17.87210706      15.75639142  F        0
H        2.98936131      16.34896307      13.39901228  F        0
H        2.98936131      13.24709329      13.39901228  F        0
Fe      11.54324351      14.84521011      10.91212060  T        0
Fe       8.31897465      14.95823573      11.18626401  T        1
O        9.90708816      14.01448055      11.92651628  T        2
O       10.06398377      15.49458563      12.14311086  T        3
