136
Lattice="19.123 0.0 0.0 0.0 14.277 0.0 0.0 0.0 7.5465" Properties=species:S:1:pos:R:3:move_mask:L:1:tags:I:1 i=128 E=-2603.9155142701 regions="_JSON [\"Active\"]" n_terminators=34 energy=-901.0952377717892 pbc="F F F"
O       15.74421369       8.26881097       5.50457205  T        0
O       12.70541887       1.06754802       2.01757665  T        0
O       15.51280734       5.68356873       6.08975103  T        0
O       12.82072608      13.07124033       2.05420910  T        0
O       12.94778247      13.17786410       6.00231128  T        0
O       15.56438591       5.88214367       1.77849016  T        0
O       12.88456491       1.07630992       5.95259987  T        0
O       15.64200221       8.51690281       1.90359752  T        0
O       17.03015089      10.71768693       6.52057262  T        0
O       11.61977288       3.46801072       2.38331937  T        0
O       17.14038792       3.54795808       6.15527032  T        0
O       11.86281916      10.64831453       2.40495072  T        0
O       11.66898806      10.91626729       5.07745119  T        0
O       17.10930168       3.79475047       1.32464914  T        0
O       11.93159985       3.46897138       5.04673749  T        0
O       17.04521191      10.78624657       1.26546874  T        0
O       16.34373101      10.11034096       3.73947942  T        0
O       12.41454434       2.74567666      -0.09132986  T        0
O       15.85555747       4.10914107       3.95489249  T        0
O       12.70026346      11.35452665      -0.05650996  T        0
O       14.25762692      10.82832455       5.66488187  T        0
O       14.24072987       3.24982165       1.72867209  T        0
O       14.44888948       3.24538109       6.05989497  T        0
O       14.47372787      10.95706891       1.89423755  T        0
O       11.48781210       8.47780662       3.91348443  T        0
O       17.14255895       1.27290369       0.26382342  T        0
O       11.52198018       5.78056164       3.75124409  T        0
O       17.33019759      13.15431977      -0.06891330  T        0
O        9.51311088      10.32899859       3.51098225  T        0
O        9.51077870       3.96869934       4.05405273  T        0
O       13.39595571       7.06464204       5.15412684  T        0
O       13.36124440       7.24502534       2.47257718  T        0
O       14.28670687       7.31856157      -0.05904924  T        0
Al      15.80443950      10.11215064       5.46520770  T        0
Si      12.76403315       2.65090977       1.51435423  T        0
Si      15.72383025       4.13487608       5.54465802  T        0
Si      12.95682498      11.50277627       1.55699774  T        0
Si      12.85406196      11.51510096       6.07512454  T        0
Al      15.59530481       4.13524755       2.25921308  T        0
Si      12.90050141       2.71836353       6.13987562  T        0
Si      15.85404122      10.15804843       2.17905862  T        0
Si      11.11950945      10.08553227       3.77076950  T        0
Si      17.55466868       2.86372494       0.01273634  T        0
Si      11.12659409       4.17162252       3.79095301  T        0
Si      17.58053913      11.51212463      -0.11759139  T        0
Si      14.72293150       7.10469532       6.11133539  T        0
Si      14.67020686       7.21931365       1.50768278  T        0
Si      12.42752659       7.13986588       3.82977226  T        0
O       19.22550875      11.32647649       8.03274260  T        0
O       22.44440485       5.87233034       5.99377954  T        0
O       22.93130746       5.76728869       1.92355369  T        0
O       22.53038852       8.40420431       2.16069233  T        0
O       21.76850959       3.26300962       6.46613268  T        0
O       21.47085654       3.56703254       1.38539329  T        0
O       22.22967815       4.12342587       3.93649432  T        0
O       24.01358810       3.24830519       2.30007864  T        0
O       24.26346644       3.99686653       5.76384768  T        0
O       20.98994369       1.19336401       0.08908838  T        0
O       19.20107724       3.02330566      -0.07904536  T        0
O       19.18332983      11.25530774      -0.37648557  T        0
O       25.07608077       7.38281686       2.31865374  T        0
O       23.83390154       7.40439658      -0.00778933  T        0
Si      22.64995102       4.29539687       5.52988097  T        0
Si      22.65478897       4.19722188       2.34943441  T        0
Si      20.84130301       2.83492206       0.03286959  T        0
Si      23.58309882       7.24587665       1.60915753  T        0
O       22.53815884       8.39836462      -2.18572011  T        0
O       22.91443125       5.77977369      -1.94431886  T        0
O       21.62043586       3.51854043      -1.25135423  T        0
O       21.96958294       4.04570801      -3.81227994  T        0
O       24.10017467       3.36598547      -2.39238577  T        0
O       25.08582790       7.36261465      -2.32773792  T        0
Si      22.66333044       4.19716183      -2.32338746  T        0
Si      23.58663124       7.24484560      -1.62621862  T        0
O       16.83373917      11.05354789       9.20997821  T        0
O       12.28712162       3.08569148       7.63259221  T        0
O       12.34387724      11.13710522       7.60837837  T        0
O       17.36138175      13.19772828       7.64158620  T        0
O       14.27199894       7.51541495       7.64386828  T        0
Si      17.58956982      11.54795330       7.79762842  T        0
O       15.54784452       8.47342264      -2.10664549  T        0
O       15.45848500       5.80092292      -1.99396074  T        0
O       12.80965771      13.07605800      -2.15024762  T        0
O       12.82984999       1.19652017      -2.28441035  T        0
O       16.77759349      10.78750458      -1.34641774  T        0
O       16.78765450       3.49721704      -1.30481666  T        0
O       11.54516779      10.73725535      -2.38114874  T        0
O       11.50301734       3.50907280      -2.40032641  T        0
O       16.31266022      10.39319606      -3.86109749  T        0
O       16.20437040       3.89942377      -3.80587844  T        0
O       14.24539636      10.78956413      -2.16693683  T        0
O       14.20504698       3.48304721      -1.99198056  T        0
O       13.13449446       7.21499094      -2.30895582  T        0
Si      15.70790895      10.08821116      -2.36113433  T        0
Si      15.65492922       4.18737681      -2.27469997  T        0
Si      12.84521472      11.48306660      -1.69428761  T        0
Si      12.77308882       2.74241366      -1.68706577  T        0
Si      14.64606633       7.18000916      -1.64981266  T        0
H       13.50938118       0.51971906       2.07492992  F        0
H       13.50958039      13.75682243       2.07498241  F        0
H       13.51084140      13.75504172       5.44776650  F        0
H       13.50975252       0.52161770       5.44778410  F        0
H       17.28979000       3.14560285       7.02339196  F        0
H       16.56036088       0.51548555      -0.00076213  F        0
H       16.56020813      13.76127004      -0.00066979  F        0
H        8.59739021      10.07362933       3.76217937  F        0
H        8.59637561       4.20354031       3.76204115  F        0
H       20.08739461      11.34211663       7.54749186  F        0
H       23.07136830       6.61169953       5.84807952  F        0
H       22.48926427       9.38386245       2.08012257  F        0
H       20.94254193       3.15353441       6.98813474  F        0
H       24.75935035       3.15857028       1.68481677  F        0
H       24.75385446       3.15950316       5.84781029  F        0
H       21.68544240       0.51556882       0.00084209  F        0
H       20.08739461      11.34211663       0.00099186  F        0
H       25.36301829       7.13882896       3.22257540  F        0
H       22.48911374       9.37433505      -2.09115109  F        0
H       22.32326696       4.16316078      -4.71757657  F        0
H       24.75385446       3.15950316      -1.69868971  F        0
H       25.36244212       7.13797332      -3.24031999  F        0
H       16.24088130      10.29526047       9.41338238  F        0
H       12.76321398       2.97604733       8.47995589  F        0
H       12.76333233      11.30075111       8.47967776  F        0
H       16.56020813      13.76127004       7.54583021  F        0
H       14.61405599       7.13800201       8.47661577  F        0
H       13.51084140      13.75504172      -2.09873350  F        0
H       13.50975252       0.52161770      -2.09871590  F        0
H       11.39521725      10.28762784      -3.24237523  F        0
H       11.39412799       3.98861071      -3.24188863  F        0
H       15.92569105      10.11584057      -4.70878458  F        0
H       15.92661844       4.15901570      -4.70770176  F        0
H       12.88191441       7.13773895      -3.23957932  F        0
Fe      16.86158044       7.93501412       3.79634762  T        0
Fe      17.68638222       5.87058419       1.46060060  T        1
O       18.03789798       6.77276133       3.02376473  T        2
O       18.13501457       6.42261372      -0.06211975  T        3
