133
Lattice="20.102 0.0 0.0 0.0 19.731 0.0 0.0 0.0 13.253" Properties=species:S:1:pos:R:3:move_mask:L:1:tags:I:1 i=77 E=-3472.0240129048 regions="_JSON [\"Active\"]" n_terminators=34 energy=-879.6643672268127 pbc="F F F"
O       10.06579239      18.90853996       3.98098656  T        0
O        9.92426837      10.74000674       3.95037330  T        0
O        2.11150811      11.30557705       4.03072566  T        0
O        2.21427199      18.52612902       3.96203451  T        0
O       12.27611681      18.26731157       2.65182158  T        0
O       12.11138967      11.05048693       2.52679953  T        0
O       11.79672549      17.27881961       5.10378885  T        0
O       11.89507183      12.14007502       5.03026610  T        0
O        8.44792219       9.61169606       8.08047357  T        0
O       12.49064031      19.90260025       4.69562015  T        0
O       12.23862734       9.47088225       4.61986534  T        0
O        3.45399264      10.62534579       6.25274404  T        0
O        3.89536113      19.05478465       5.91279540  T        0
O        6.06901738      19.04923903      10.66444659  T        0
O        3.04265317       8.85450640       4.23093128  T        0
O        6.13954155      10.59843012      10.66539148  T        0
O        4.80415684      11.01820224       4.11192375  T        0
O        4.87785960      18.42969296       3.45496248  T        0
O        4.01588365      12.36662369       8.14587491  T        0
O        4.25381207      17.44835502       8.02174932  T        0
O        5.90157105      10.54145849       7.46456258  T        0
O        6.09630303      19.27526458       7.39052278  T        0
O        3.62590961       9.79100320       8.73583249  T        0
O        5.36003434       9.52489323       2.16311931  T        0
O        3.77357998      20.16229225       8.33198895  T        0
O        7.85663152      12.24496729       8.14914751  T        0
O        7.84337954      17.24432366       7.88724946  T        0
O        8.05120610      10.95156162       5.89255257  T        0
O        8.20966616      18.61352062       5.86709834  T        0
O        7.36605912      10.97046469       3.32468207  T        0
O        7.53010415      18.40276332       3.33773568  T        0
O        8.22738405       8.71729055       4.56481627  T        0
O       12.00010246      10.59987843       9.33926591  T        0
O       12.00093127      19.02824035       9.47608334  T        0
O        5.56160571      12.24485461       1.86679877  T        0
O        6.14443690      16.98619326       1.57136958  T        0
O       16.00111294      17.00627575       4.55877073  T        0
O       16.06987464      12.55824358       4.60142758  T        0
O        9.96642283      17.17887030       9.64519706  T        0
O        9.91461137      12.33803596       9.83773682  T        0
O        7.27220067      16.59328465      10.59723370  T        0
O        7.48100890      12.96186099      10.69727057  T        0
O        8.78913515      14.61034718       8.94032736  T        0
O        6.00501546      17.44351493      12.83685633  T        0
O        6.07319229      12.16721462      12.84016944  T        0
O       16.70829630      12.50823072       7.24201637  T        0
O       16.47052221      17.21550702       7.19253358  T        0
O        4.60904583      16.89812482      10.62551932  T        0
O        4.82909842      12.92759637      10.58365242  T        0
O        5.42361671      14.59304523       0.63978951  T        0
O       16.03447305      14.80092912       5.97402768  T        0
O        3.78796043      16.76456423       0.51092282  T        0
O        3.73031792      12.67224109      -0.11019217  T        0
O       14.18426695      12.98049887       6.58191189  T        0
O       14.02056397      16.50573489       6.37021459  T        0
O       11.90192882      14.83448937       6.23379570  T        0
O       11.48437923      12.80037924       7.78807349  T        0
O       11.75626148      17.01800681       7.70516031  T        0
O        2.15938541      16.85593542       9.49559461  T        0
O        2.22557735      13.36234152       9.99508907  T        0
O       12.36920462      13.01782081      10.36551175  T        0
O       12.36232379      16.50605975      10.30545816  T        0
O        4.00493384      14.92780361       8.94716911  T        0
Si      11.66932145      18.58308891       4.13912691  T        0
Si      11.55664087      10.88627455       4.07499692  T        0
Si       3.36860828      10.41929425       4.63249268  T        0
Si       3.68681837      19.18870521       4.29040084  T        0
Si       4.28484552      10.82947711       7.63862474  T        0
Si       4.47219192      18.96489963       7.44314333  T        0
Si       7.51548455      10.80813697       7.41738992  T        0
Si       7.63737037      18.82361329       7.43991784  T        0
Si       8.41753710      10.35020142       4.41846334  T        0
Si       8.51875520      19.21566579       4.33602219  T        0
Si       5.80778648      10.95512838       2.83899853  T        0
Si       6.14969114      18.37200166       2.43245860  T        0
Al       8.47040902      16.36619157       9.37866790  T        0
Si       8.48984273      13.04166915       9.42738292  T        0
Si       6.04372263      17.46008880      11.18476654  T        0
Si       6.12741113      12.16679371      11.19698454  T        0
Si       5.34255898      16.19864136       0.37946413  T        0
Si       5.26194808      12.97843084       0.44745875  T        0
Si      15.71421355      13.18284387       6.09233227  T        0
Si      15.62936445      16.38100637       6.03608732  T        0
Al      12.50297512      13.11623770       6.30539809  T        0
Si      12.40416632      16.40029883       6.34353290  T        0
Si      11.45791665      12.15259252       9.31284756  T        0
Si      11.50206189      17.46009724       9.27970679  T        0
Si       3.75125285      16.51826287       9.28760223  T        0
Si       3.76176373      13.37134573       9.40990839  T        0
O        8.60978909      19.89694226       8.20895805  T        0
O        3.83609975      20.75638875       3.77966199  T        0
O        6.22775412      19.56788855       1.30619384  T        0
O        8.17714166      20.81244482       4.45098475  T        0
O        5.99898553      16.39760411      -1.12041191  T        0
O        6.34083521      12.28611377      -0.58108597  T        0
H        1.81269882      11.30123319       3.09859993  F        0
H        1.81269882      18.29482316       3.09859994  F        0
H       13.03074803      18.74401529       2.26762503  F        0
H       13.03074804      10.85204106       2.26762503  F        0
H        8.32625906       8.98649408       8.81306681  F        0
H       12.34310542      20.30287261       5.56688324  F        0
H       12.34314048       9.29328245       5.56696388  F        0
H        6.59189912      19.77694965      11.03822749  F        0
H        3.60112680       8.06005012       4.30646574  F        0
H        6.59189033       9.81912404      11.03827922  F        0
H        4.11249823       9.08086468       9.18193973  F        0
H        5.72719027       9.20254625       1.33756862  F        0
H        4.11250309      20.51523557       9.18186357  F        0
H        8.66651872       8.12235896       3.93953912  F        0
H       11.52310774       9.76092419       9.21110646  F        0
H       11.52310955      19.83515307       9.21116341  F        0
H       15.87290964      17.87210703       4.12309272  F        0
H       15.87290964      11.72394929       4.12309273  F        0
H        5.86807409      16.61444052      13.33116226  F        0
H        5.86807409      12.98161584      13.33116226  F        0
H       16.41758072      12.40218664       8.16986141  F        0
H       16.41758072      17.19386972       8.16986141  F        0
H        2.98936131      16.34896307       0.14601228  F        0
H        2.98936131      13.24709329       0.14601228  F        0
H        1.73086688      16.98843832      10.35624453  F        0
H        1.73086689      12.60761804      10.35624453  F        0
H       13.32025657      13.20375310      10.31771692  F        0
H       13.32025658      16.39230324      10.31771692  F        0
H        8.32625906      20.60985804       8.81306681  F        0
H        3.60112680      21.53630199       4.30646574  F        0
H        5.72719026      20.39380587       1.33756863  F        0
H        8.66651872      21.47399316       3.93953912  F        0
H        6.36643797      17.19386972      -1.54340896  F        0
H        6.36643797      12.40218664      -1.54340896  F        0
Fe       8.27729615      16.48773846       6.02175163  T        0
Fe      10.08632139      14.25887890       7.21530489  T        1
O        8.97668876      15.27131069       4.76439994  T        2
O        8.57911020      14.51408072       5.97069098  T        3
