135
Lattice="19.123 0.0 0.0 0.0 14.277 0.0 0.0 0.0 7.5465" Properties=species:S:1:pos:R:3:move_mask:L:1:tags:I:1 i=128 E=-2603.9155142701 regions="_JSON [\"Active\"]" n_terminators=32 energy=-906.6914677213178 pbc="F F F"
O        6.15425442       1.12806602       1.54684418  T        0
O       15.74491994       8.53800657       5.97889511  T        0
O        3.43901847       8.48317787       5.87816608  T        0
O        6.11538228      13.15228527       1.50776395  T        0
O       15.86776907       5.87141341       5.54696561  T        0
O        3.44020014       5.79888783       5.86746107  T        0
O        3.48349794       5.78799377       1.73810473  T        0
O        6.14295741      13.13884416       6.00378075  T        0
O       15.84738680       5.72986863       1.56234897  T        0
O        3.48611387       8.48381905       1.74073392  T        0
O        6.13547249       1.13912694       6.00798641  T        0
O       15.86584401       8.40574723       2.17134586  T        0
O        7.36830354       3.44909389       2.38018533  T        0
O       11.64894066       3.24329073       2.45743614  T        0
O        1.96601400      10.74464415       6.12648170  T        0
O        7.36444472      10.84817805       2.37729983  T        0
O       11.68157017      11.07972233       2.50376828  T        0
O        1.95252432       3.54679170       6.10225722  T        0
O       12.03597461      10.37244312       5.14745110  T        0
O        2.16279794       3.48077214       1.34453246  T        0
O        7.18020509      10.81117775       5.02716214  T        0
O       12.08395618       3.90144226       5.10730948  T        0
O        2.15937170      10.79365032       1.35482508  T        0
O        7.16992375       3.46828995       5.02766832  T        0
O        6.51363586       3.09284910      -0.13783151  T        0
O        3.05423452      10.13449702       3.80275904  T        0
O        6.50626293      11.18472394      -0.14903510  T        0
O        3.05687925       4.14176567       3.79484827  T        0
O        4.76816476       3.44326471       1.86775127  T        0
O        4.63415518      10.90616039       5.81469512  T        0
O        4.76811332      10.82272332       1.86717861  T        0
O        4.62510795       3.37125795       5.81851206  T        0
O        1.79476746       1.13217971      -0.00102267  T        0
O       11.30602546       8.47285617       3.47415065  T        0
O        7.85761484       8.52572925       3.70410552  T        0
O        1.80719050      13.12925039      -0.02689117  T        0
O       11.27130146       5.81578963       3.51392280  T        0
O        7.86432259       5.75705645       3.71779916  T        0
O       -0.02554329       3.12088584      -0.22652686  T        0
O        9.59307340      10.49352413       3.89006786  T        0
O       -0.02462893      11.15437971      -0.23008913  T        0
O        9.59092722       3.77368992       3.90927365  T        0
O       13.52992258       7.17842460       5.06546796  T        0
O        5.63109661       7.14422950       5.11931940  T        0
O        5.78625243       7.13284773       2.29958088  T        0
O       13.53606233       7.01900882       2.18823067  T        0
O       14.88088236       7.61798192      -0.12255276  T        0
O        5.02530100       7.12536678      -0.06396789  T        0
Si       6.20164869       2.77551850       1.44686094  T        0
Si       3.29234388      10.05264196       5.43263625  T        0
Si       6.19254013      11.50343226       1.43669616  T        0
Si       3.28976166       4.22952196       5.42313320  T        0
Si       3.35741091       4.19840397       2.19583810  T        0
Si       6.13916882      11.48531202       6.09786718  T        0
Si       3.35612120      10.07298638       2.20279504  T        0
Si       6.13122340       2.79252019       6.09885150  T        0
Si       1.56492490       2.77551331      -0.03152226  T        0
Si      11.19254435      10.10910348       3.74975390  T        0
Si       7.99293790      10.16724746       3.75660732  T        0
Si       1.56969633      11.48709445      -0.03079801  T        0
Si      11.18473757       4.17136038       3.74519402  T        0
Si       7.99294503       4.11459788       3.76614841  T        0
Si      14.84702692       7.12630040       6.01131816  T        0
Si       4.37469885       7.14033407       6.11940693  T        0
Si       4.35226084       7.13462909       1.50778566  T        0
Si      14.98358735       7.16132880       1.47729327  T        0
Al      12.55850225       7.12880478       3.62893900  T        0
Al       6.75351461       7.13986631       3.83542119  T        0
O        6.68793279       3.21452283       7.58982811  T        0
O        6.69004626      11.06441926       7.59180072  T        0
O       14.33749214       6.85597975       7.57912617  T        0
O        5.00543211       7.13513600       7.64262499  T        0
O        3.59316463       8.45911945      -1.91261166  T        0
O        3.56361964       5.77414741      -1.89525872  T        0
O        6.30920451      13.05647157      -2.15778966  T        0
O        6.33066516       1.19371697      -2.10937866  T        0
O        7.54061331       3.49804527      -5.37103703  T        0
O        2.33950569      10.75733836      -1.29291559  T        0
O        7.57149834      10.89369904      -5.31371052  T        0
O        2.32491473       3.47462342      -1.31142160  T        0
O        7.45967647      10.70561998      -2.60057286  T        0
O        7.44310773       3.52416346      -2.60770833  T        0
O        2.76814836      10.18302299      -3.83229571  T        0
O        2.77771189       4.04193859      -3.84399559  T        0
O        4.83932054      10.79593582      -2.20762893  T        0
O        4.83001869       3.44263128      -2.18656714  T        0
O        7.32745563       8.49185457      -4.14657582  T        0
O        7.70160203       5.80995230      -3.93289016  T        0
O        9.62293771       9.74194802      -3.99168129  T        0
O        9.66705916       3.90352439      -4.12550077  T        0
O        5.83547513       7.07544108      -2.52258874  T        0
O        5.57182813       6.63707801      -5.18933616  T        0
Si       3.39332456      10.05269542      -2.31260997  T        0
Si       3.38486985       4.18322822      -2.32154363  T        0
Si       6.26674843      11.45785828      -1.75907993  T        0
Si       6.26459134       2.79652065      -1.74263971  T        0
Si       8.00243566       9.99187762      -3.99141826  T        0
Si       8.06662272       4.19438772      -3.97997215  T        0
Si       4.45909138       7.10705630      -1.66217230  T        0
Si       6.62516603       7.03315529      -3.97644538  T        0
H        5.61083456       0.52083913       2.07985367  F        0
H       15.75671561       9.37610020       5.45468838  F        0
H        5.61112307      13.75835362       2.07975607  F        0
H       15.75636517       4.89339805       5.45628994  F        0
H        5.62495998      13.75277707       5.44935724  F        0
H       15.75706449       4.89440344       2.08043705  F        0
H        5.62509051       0.52255101       5.44942550  F        0
H       15.75699573       9.38061947       2.07980242  F        0
H       12.44565577       3.15588527       1.90033815  F        0
H        1.83343022      11.12554006       7.01950242  F        0
H       12.44599272      11.12072140       1.90005270  F        0
H        1.81954193       3.15353441       6.98813474  F        0
H       12.44514575      11.11938908       5.63275925  F        0
H       12.44354748       3.15657450       5.63339447  F        0
H        2.56244240       0.51556882       0.00084209  F        0
H        2.56257806      13.76129914       0.00087584  F        0
H       -0.96435880       2.93479999       0.00082830  F        0
H       -0.96427299      11.34215683       0.00103770  F        0
H       14.60982961       7.13673871      -0.92783774  F        0
H        6.35949513       2.97597070       8.47938261  F        0
H        6.35946036      11.30224636       8.48133548  F        0
H       14.61405599       7.13800201       8.47661577  F        0
H        4.50898861       7.14016697       8.47499567  F        0
H        5.62495998      13.75277707      -2.09714276  F        0
H        5.62509051       0.52255101      -2.09707450  F        0
H        6.67730558       3.15591219      -5.64675051  F        0
H        6.67686405      11.12256578      -5.64493030  F        0
H        3.19736723      10.11759060      -4.70766930  F        0
H        3.20026696       4.16316078      -4.71757657  F        0
H       10.52611047      10.07370688      -3.78446723  F        0
H       10.52510559       4.20251023      -3.78397245  F        0
H        4.87243006       7.14046961      -5.64294599  F        0
Fe       9.62561259       7.13596198       2.82533208  T        0
Fe       7.08886781       7.12480281       0.65746339  T        1
O        8.82143971       7.13685812       1.10003267  T        2
