141
Lattice="20.102 0.0 0.0 0.0 19.731 0.0 0.0 0.0 13.253" Properties=species:S:1:pos:R:3:move_mask:L:1:tags:I:1 i=77 E=-3472.0240129048 regions="_JSON [\"Active\"]" n_terminators=34 energy=-947.1106993306524 pbc="F F F"
O        9.94913078      18.84649650       3.97492511  T        0
O        9.86335398      10.74217559       3.91340476  T        0
O        2.31670137      18.18333901       3.91865294  T        0
O       12.09369399      18.76961788       2.52576037  T        0
O       12.08497057      10.96522217       2.49219221  T        0
O       11.90854691      17.26720424       4.78100643  T        0
O       11.88647930      12.14866232       4.94038009  T        0
O        8.28579502       9.29711054       7.89139961  T        0
O       12.20489885      19.92277571       4.94645832  T        0
O       12.11879321       9.43826821       4.63451583  T        0
O        3.60772268      18.85118979       6.05016999  T        0
O        6.13365834      18.78839233      11.13281103  T        0
O       16.98228450      10.65592665       9.20409564  T        0
O       17.01718051      18.93662376       9.15804857  T        0
O        4.94222872      11.10255021       4.14373049  T        0
O        4.97240574      18.79196652       3.79083498  T        0
O        3.92685435      17.26890963       8.19146358  T        0
O       14.29600921      17.08315475      12.06988388  T        0
O       14.45421549      12.51132782      12.04332703  T        0
O        5.82367211      10.29145255       7.52442631  T        0
O        5.86975709      18.93302368       7.36775114  T        0
O        5.31774547      10.05296801       1.58255654  T        0
O        3.69324658      19.91038426       8.47845146  T        0
O        7.82670481      11.96648755       8.10546323  T        0
O        7.80644331      17.08433451       7.67352638  T        0
O        7.89761881      10.74810194       5.75154769  T        0
O        7.91415586      18.49662814       5.64598541  T        0
O        7.31477802      11.17347196       3.15754636  T        0
O        7.48117990      18.61707708       3.05647566  T        0
O        7.96784559       8.78779892       3.90189513  T        0
O       11.89367365      10.52326363       8.73118926  T        0
O       11.33402145      18.92772139       9.18558592  T        0
O        5.35739016      12.66059129       2.00821028  T        0
O        5.70891440      16.90710319       2.01223839  T        0
O       16.45600505      17.22621697       4.57136698  T        0
O       16.27456454      12.51734909       4.52472359  T        0
O       10.29031553      16.45126394       8.71287483  T        0
O       10.02100836      12.26705663       9.65059285  T        0
O        7.69450930      16.72558788      10.38223828  T        0
O        7.71188559      12.72429190      10.70860080  T        0
O       17.84112394      13.14929556       9.41903107  T        0
O       17.81400801      16.43989479       9.42059755  T        0
O        8.66158598      14.39314779       8.75356383  T        0
O        6.59810610      16.62241367      12.70121018  T        0
O       16.62355416      12.49791236       7.20220873  T        0
O       16.44625560      17.06980991       7.23598769  T        0
O        4.98293837      16.52016805      10.54804815  T        0
O       15.16973323      12.64766987       9.43472541  T        0
O       15.16435278      17.00133775       9.53010923  T        0
O       16.29701308      14.79985476       5.82532071  T        0
O       14.24961039      13.10035922       6.25546515  T        0
O       14.25212222      16.50786648       5.75747237  T        0
O       12.08560017      14.95829798       6.08852317  T        0
O       11.58954479      12.96481578       7.65233361  T        0
O       12.36889199      17.31803212       7.37553460  T        0
O        2.32294858      16.24178543      10.15143277  T        0
O       12.60560456      12.73456558      10.10538261  T        0
O       12.59284596      16.73368521       9.99230229  T        0
O        4.03793621      14.71322953       8.79821813  T        0
O       14.22308424      14.78462319      10.76135869  T        0
Si      11.58184708      18.69469798       4.08352965  T        0
Si      11.50340365      10.86742756       4.04348715  T        0
Si       3.51159097      19.16277416       4.45517190  T        0
Si       4.25033723      18.72100299       7.53269817  T        0
Si       7.43666630      10.58878175       7.30167468  T        0
Si       7.43917028      18.63002814       7.27675806  T        0
Si       8.30194602      10.37806660       4.20101466  T        0
Si       8.40310943      19.24155287       4.23407347  T        0
Si       5.73789459      11.20588877       2.69537935  T        0
Si       5.92690469      18.44627396       2.51374249  T        0
Al       8.57417311      16.15147694       9.03639193  T        0
Si       8.52629303      12.84274313       9.28726516  T        0
Si       6.36424497      17.16765359      11.16901980  T        0
Si      16.63170370      12.22278997       8.80918599  T        0
Si      16.59770538      17.37175546       8.83331029  T        0
Si      15.82297665      13.21821847       5.95310888  T        0
Si      15.87498724      16.37362297       5.86767763  T        0
Al      12.54981730      13.21016584       6.12561389  T        0
Si      12.66230529      16.47518987       6.00972377  T        0
Si      11.53602017      12.10508302       9.04665664  T        0
Si      11.64086383      17.36290393       8.83448290  T        0
Si       3.81508591      16.21420983       9.44912798  T        0
Si      14.11932758      13.16429635      10.56628730  T        0
Si      14.08002318      16.40039545      10.58423262  T        0
O       10.04311202      21.25021977       9.28490829  T        0
O        7.65518316      20.84530705      10.39483348  T        0
O        7.72757794      22.41851487       8.31246575  T        0
O        8.30291324      19.77931097       7.99380505  T        0
O        6.45654043      20.94149931      12.75925808  T        0
O        3.10681870      20.72283594       4.10187532  T        0
O        5.01820515      21.09325377      10.46185148  T        0
O       14.25499665      20.74480657       6.56035502  T        0
O        5.66388358      19.43337819       1.22342766  T        0
O       12.58001961      22.51547013       5.38925132  T        0
O       11.83401586      20.87027966       7.41228472  T        0
O        2.37825918      21.53185053      10.14857846  T        0
O       12.57348448      21.20273483      10.03274963  T        0
O        8.17283470      20.84578187       4.48902675  T        0
O        3.93322103      22.63694072       8.47226085  T        0
Si       8.44183954      21.10079738       8.99457098  T        0
Si       6.29908782      20.40673824      11.21220043  T        0
Si      12.71182086      21.01211630       6.05692793  T        0
Si      11.49434628      20.54466808       8.98039287  T        0
Si       3.80692459      21.27877436       9.38046332  T        0
H        1.81269882      18.29482316       3.09859994  F        0
H       13.03074803      18.74401529       2.26762503  F        0
H       13.03074804      10.85204106       2.26762503  F        0
H        8.32625906       8.98649408       8.81306681  F        0
H       12.34314048       9.29328245       5.56696388  F        0
H       16.64303307       9.81912404       8.84117322  F        0
H       16.64304187      19.77694965       8.84122497  F        0
H        4.05829635      10.79936776       4.41071281  F        0
H       14.40563884      18.04556895      12.19637069  F        0
H       14.40563885      11.55048737      12.19637067  F        0
H        5.06295559      10.84500939       7.26028495  F        0
H        5.72719027       9.20254625       1.33756862  F        0
H        8.66651872       8.12235896       3.93953912  F        0
H       11.52310774       9.76092419       9.21110646  F        0
H        5.53537813      12.95496052       1.09262639  F        0
H        5.53537813      16.64109584       1.09262638  F        0
H       15.87290964      17.87210703       4.12309272  F        0
H       15.87290964      11.72394929       4.12309273  F        0
H        6.74596321      12.66985099      10.74076342  F        0
H       18.05303808      13.25020103      10.35989921  F        0
H       18.05303809      16.34585533      10.35989921  F        0
H        5.86807409      16.61444052      13.33116226  F        0
H        1.73086688      16.98843832      10.35624453  F        0
H        4.05997682      13.86848065       9.28699688  F        0
H        7.84356087      22.87259074       7.45668424  F        0
H        6.01931354      20.68412461      13.59787507  F        0
H        3.60112680      21.53630199       4.30646574  F        0
H       15.03932989      20.71065726       5.99268335  F        0
H        5.72719026      20.39380587       1.33756863  F        0
H       11.89104871      22.77092679       4.74838323  F        0
H        1.92726146      20.79864952      10.59110356  F        0
H       13.54926599      21.17502420      10.11787433  F        0
H        8.66651872      21.47399316       3.93953912  F        0
H        4.51576461      22.82060840       7.71911054  F        0
Fe       8.38647526      16.46887666       5.75906812  T        0
Fe      10.25540007      14.56732986       7.20466013  T        1
O        9.10418506      14.85997836       5.73521087  T        2
