135
Lattice="19.123 0.0 0.0 0.0 14.277 0.0 0.0 0.0 7.5465" Properties=species:S:1:pos:R:3:move_mask:L:1:tags:I:1 i=128 E=-2603.9155142701 regions="_JSON [\"Active\"]" n_terminators=32 energy=-907.7235396844176 pbc="F F F"
O        5.84880670       1.09377560       1.33473083  T        0
O       15.83575560       8.40090169       5.84117943  T        0
O       13.01421252       1.10829182       1.47481791  T        0
O        3.54858511       8.49460790       5.78738849  T        0
O        6.03147231      13.16141381       1.43261614  T        0
O       15.78963614       5.71321965       5.88964466  T        0
O       12.88695970      13.01241485       1.93589654  T        0
O        3.48656167       5.82057950       5.83523236  T        0
O       13.42898550      13.16340773       6.21730633  T        0
O        3.38451454       5.82629437       1.71023152  T        0
O        6.12624920      13.16586413       6.04621856  T        0
O       15.52221909       5.79424858       1.78131814  T        0
O       12.99541318       1.13223296       6.01135327  T        0
O        3.36372445       8.51594007       1.68897390  T        0
O        5.99707041       1.12015335       6.12564011  T        0
O       15.70220661       8.47329815       1.75274521  T        0
O        7.17840147       3.36217576       2.18473179  T        0
O       17.25320538      10.67271325       6.15380474  T        0
O       11.99378636       3.43362333       2.47877205  T        0
O        1.95839630      10.65325066       6.16889580  T        0
O        7.19996669      10.91168634       2.46508015  T        0
O       17.07303210       3.33474947       6.08631709  T        0
O       11.95980746      10.48894986       2.13704981  T        0
O        1.90099046       3.66531513       6.15958865  T        0
O       12.07966448      11.13811117       4.98276727  T        0
O        1.88849778       3.61919923       1.39504047  T        0
O        7.19088837      10.83529824       5.08932715  T        0
O       17.17665458       3.71998111       1.32902962  T        0
O       11.77744596       3.40551109       5.10695703  T        0
O        1.94848782      10.80831930       1.45786468  T        0
O        7.13450848       3.38089255       5.04349241  T        0
O       17.23448442      10.65890842       1.39855801  T        0
O        6.06303607       3.09169044      -0.26174939  T        0
O       16.21340353      10.08790691       3.80556727  T        0
O       12.49247780       3.26214238      -0.04343683  T        0
O        3.02536461      10.16515196       3.78381823  T        0
O        6.65594501      11.02833058      -0.04706842  T        0
O       16.11167993       4.11108319       3.75641245  T        0
O       12.96234285      11.27937039      -0.18613720  T        0
O        2.91515939       4.21393245       3.79082254  T        0
O        4.54088963       3.39738825       1.87354677  T        0
O       14.56924183      10.75880627       5.83273452  T        0
O       14.55540491       3.28908641       1.73576891  T        0
O        4.60796908      10.96687577       5.79062830  T        0
O        4.62471706      10.88592515       1.76562859  T        0
O       14.39446965       3.42715434       5.67320097  T        0
O       14.59887146      10.92295615       1.85363191  T        0
O        4.55597402       3.35439143       5.75835451  T        0
O       11.63565179       8.44047325       3.88034162  T        0
O        7.48769061       8.55298320       3.71242070  T        0
O       11.72821069       5.76457766       3.78718180  T        0
O        7.61358380       5.92980564       3.55203880  T        0
O        9.47978080      10.31348335       3.75002728  T        0
O        9.65151806       4.28183766       3.53628391  T        0
O       13.67967370       7.06667656       5.03949372  T        0
O        5.73885263       7.08087071       5.13144103  T        0
O        5.54454354       7.21019910       2.46780478  T        0
O       13.36084241       7.32712069       2.34866052  T        0
O       14.14038227       7.25794038      -0.08365256  T        0
O        4.94699372       7.16050668      -0.05977704  T        0
Si       5.94955460       2.75011066       1.33103197  T        0
Si      15.94164668       9.99588824       5.42639426  T        0
Si      13.03803646       2.75845857       1.42081223  T        0
Si       3.29736120      10.06970683       5.39931383  T        0
Si       6.10122421      11.50652115       1.42422487  T        0
Si      15.83392095       4.15259633       5.37564506  T        0
Si      13.11580889      11.45871652       1.43462153  T        0
Si       3.24204593       4.25181104       5.39831866  T        0
Si      13.14275055      11.53282108       6.12731783  T        0
Si       3.19698079       4.25599648       2.17791580  T        0
Si       6.12106289      11.51021228       6.11387934  T        0
Si      15.83662142       4.21410659       2.14560492  T        0
Si      12.94757868       2.78293575       6.08966380  T        0
Si       3.25492486      10.08771717       2.16233289  T        0
Si       6.06722826       2.78220257       6.09737824  T        0
Si      15.93384758      10.04605334       2.20139495  T        0
Al      11.21003606      10.20209445       3.83948233  T        0
Si       7.87221502      10.16559903       3.75846156  T        0
Si      11.28248682       4.16071479       3.74998521  T        0
Al       7.81427997       4.09027822       3.63207404  T        0
Si      14.91398405       7.08201221       6.11820625  T        0
Si       4.41678104       7.13874926       6.10428891  T        0
Si       4.27608847       7.17328359       1.44384660  T        0
Si      14.75253485       7.18541810       1.44548809  T        0
Si      12.61180722       7.14413602       3.84340797  T        0
Si       6.56196551       7.20884218       3.73320381  T        0
O        6.58249880       3.28176258       7.58354935  T        0
O       12.45662235       3.23453723       7.59100036  T        0
O        6.66205107      11.04444041       7.59428928  T        0
O       12.53146196      11.03283627       7.57451985  T        0
O       14.19881321       7.09586286       7.59651125  T        0
O        5.01098416       7.16718470       7.63981672  T        0
O       12.88722669      13.01941838      -2.27474953  T        0
O        6.20535367       1.27830881      -2.32870210  T        0
O       11.87846725      10.49464545      -2.41140639  T        0
O        7.28013936       3.75572410      -2.40938743  T        0
O       14.61310855      11.03381366      -2.33985106  T        0
O        4.53629086       3.33267889      -2.48365336  T        0
Si      13.09095566      11.44347270      -1.82004954  T        0
Si       6.00964358       2.85795983      -1.87231529  T        0
H        5.61083456       0.52083913       2.07985367  F        0
H       13.50938118       0.51971906       2.07492992  F        0
H        5.61112307      13.75835362       2.07975607  F        0
H       13.50958039      13.75682243       2.07498241  F        0
H       13.51084140      13.75504172       5.44776650  F        0
H        5.62495998      13.75277707       5.44935724  F        0
H       13.50975252       0.52161770       5.44778410  F        0
H        5.62509051       0.52255101       5.44942550  F        0
H       17.28974254      11.12548174       7.01862795  F        0
H        1.83343022      11.12554006       7.01950242  F        0
H       17.28979000       3.14560285       7.02339196  F        0
H        1.81954193       3.15353441       6.98813474  F        0
H        1.83183800       3.14857954       0.53722786  F        0
H       17.29134854       3.14797220       0.53999843  F        0
H        1.83154049      11.12909684       0.54034962  F        0
H       17.29120144      11.12876736       0.54010345  F        0
H       12.76076393       2.97683097      -0.93375646  F        0
H        6.36236324      11.29726414      -0.93275871  F        0
H       14.60982961       7.13673871      -0.92783774  F        0
H        4.51175007       7.13509558      -0.92932085  F        0
H        6.35949513       2.97597070       8.47938261  F        0
H       12.76321398       2.97604733       8.47995589  F        0
H        6.35946036      11.30224636       8.48133548  F        0
H       12.76333233      11.30075111       8.47967776  F        0
H       14.61405599       7.13800201       8.47661577  F        0
H        4.50898861       7.14016697       8.47499567  F        0
H       13.51084140      13.75504172      -2.09873350  F        0
H        5.62509051       0.52255101      -2.09707450  F        0
H       11.39521725      10.28762784      -3.24237523  F        0
H        7.72584421       3.99139588      -3.24276680  F        0
H       15.19994748      10.29594087      -2.09275354  F        0
H        3.91490408       3.97370239      -2.09385012  F        0
Fe       9.41518179       6.28775377       2.65351048  T        0
Fe      11.51508837       8.54032847       1.60177480  T        1
O       10.23606177       7.26914368       1.34814783  T        2
