135
Lattice="24.397 0.0 0.0 0.0 24.397 0.0 0.0 0.0 24.397" Properties=species:S:1:pos:R:3:move_mask:L:1:tags:I:1 i=41 E=-6943.8331748197 regions="_JSON [\"Active\"]" n_terminators=24 energy=-948.7560996566353 pbc="F F F"
O        9.61351558      14.61628876      -0.07294298  T        0
O       12.34544469       9.53375573       2.46856184  T        0
O       14.84303421      20.74231343       6.32595561  T        0
O        9.81094893      18.46574410       3.72535756  T        0
O       20.91068482      15.68297017      -0.01607362  T        0
O       18.43716186      20.81681223       2.65662146  T        0
O       14.66670767       9.61900403       0.08233777  T        0
O        9.64068010      12.14603628       2.59046893  T        0
O        9.71854605      15.66224008       6.29300500  T        0
O       12.02358707      20.70721506       3.71126590  T        0
O       15.82882488      20.88992243      -0.19070991  T        0
O       21.01588517      18.20518717       2.56102323  T        0
O       11.59122356      13.83805553       1.85391100  T        0
O       14.04857396      11.57565425       1.88348542  T        0
O       12.80088588      20.13951405       8.02982888  T        0
O       10.39142920      17.68282122       7.99095506  T        0
O       10.10715919      20.40282435       5.55072989  T        0
O       19.19823506      16.32165723       1.95578142  T        0
O       16.56504035      19.04203113       1.91677641  T        0
O       10.32913250      10.23013687       0.85535282  T        0
O       11.45164503      16.48257644       4.48516429  T        0
O       14.06585970      19.11648563       4.41582137  T        0
O       20.36178109      20.20152833       0.87758322  T        0
O       12.13155034      11.97453920       3.61760294  T        0
O       12.33800289      21.80216944       6.12085783  T        0
O        8.69235602      18.18278365       6.12465157  T        0
O       18.52775999      18.31370463       3.57571265  T        0
O       12.21233985       8.58909347      -0.01276956  T        0
O        8.68158239      12.10993172       0.06022366  T        0
O       12.21343710      14.55475720       6.22292556  T        0
O       12.30272273      18.20871572       2.68267262  T        0
O       15.92209768      18.24358406       6.18796526  T        0
O       18.37310631      21.72384106       0.11967060  T        0
O       21.86140534      18.19313440       0.03201842  T        0
O       10.41794633      16.49147666       2.01110183  T        0
O       14.12449915      10.22665415       4.26399533  T        0
O       14.14705282      22.56644723       8.00669057  T        0
O        7.71829726      19.96438109       4.36456171  T        0
O       10.54951815      22.80560887       4.39173382  T        0
O       20.16457255      13.79248843       1.70471291  T        0
O       16.62310147      19.99571720       4.42147203  T        0
O       16.49488295      10.30381008       1.84162625  T        0
O       10.51011501      13.96118917       4.35042311  T        0
O        7.94411376      16.35907171       8.01339213  T        0
O       13.91274475      20.08890203       1.89074182  T        0
O       20.30753131      16.45319595       4.40432391  T        0
O       20.12936153      22.67197199       1.95989306  T        0
O        7.85179878      10.35163296       1.95531486  T        0
O       22.88990943      19.94182780       1.79344412  T        0
O       10.48997810       7.71197111       1.86276457  T        0
Al      10.86906956      15.22985766       0.91999463  T        0
Si      13.13437598      10.80352625       3.10230837  T        0
Si      13.53441391      21.31578911       7.13113738  T        0
Si       9.08320827      19.26512705       4.96009904  T        0
Si      19.67415383      15.15496776       0.92041561  T        0
Si      17.52117292      19.52895102       3.11640641  T        0
Si      15.26562695      10.86794895       0.93146605  T        0
Si      10.93216820      12.99210371       3.11208023  T        0
Si       9.17752204      16.97836506       7.12252349  T        0
Si      11.24746706      21.42918139       4.96245833  T        0
Al      15.29594688      19.66714155       0.90421538  T        0
Si      19.74777141      17.33478989       3.13071683  T        0
Si       9.10685354      11.21253649       1.34342159  T        0
Si      10.96800923      15.18300979       5.35102001  T        0
Si      13.11003459      19.61343818       3.18400574  T        0
Si      21.52661657      19.14952676       1.32037863  T        0
Si      11.31407298       9.00728528       1.28885982  T        0
Si      15.36160230      19.53587545       5.33809311  T        0
Si      10.93407198      17.39692066       3.22450705  T        0
Si      19.31647702      21.35748233       1.39244822  T        0
O       14.72374020      12.18151684      -2.57127628  T        0
O       15.76837247      18.45528138      -2.45422184  T        0
O       12.11403207      14.65410971      -2.47153038  T        0
O       18.35954514      15.69901924      -2.59153115  T        0
O       14.00595583      13.96715562      -0.69791392  T        0
O       16.51305128      16.47321961      -0.82813775  T        0
O       13.00000274      10.24360625      -1.92300935  T        0
O       10.09766661      12.88354845      -2.05052540  T        0
O       17.62019722      20.42263454      -2.09238330  T        0
O       20.29496812      17.44621195      -1.96407372  T        0
O       12.28595344      15.82874126      -0.01531143  T        0
O       15.69885755      12.10017886      -0.04622694  T        0
O       18.40274799      14.78451964      -0.05102567  T        0
O       14.65445083      18.17418106       0.01394864  T        0
O       12.21042664      12.20450900      -3.50207235  T        0
O       18.23826928      18.23072264      -3.44734556  T        0
O       16.51841837      13.97365856      -1.74111043  T        0
O       14.06244018      10.45354928      -4.42333438  T        0
O       22.76254744      16.37290620      -1.75470977  T        0
O       16.47408511      19.99076640      -4.48756376  T        0
O        7.59686996      13.86623260      -1.61646275  T        0
O       14.08576120      16.40054830      -1.89873332  T        0
O       10.48275675      14.04151304      -4.45830118  T        0
O       16.84727520      22.97146983      -1.58306010  T        0
O       19.99558634      16.46966388      -4.48860749  T        0
O       14.10344295       7.77807858      -1.76262363  T        0
Si      15.26549062      13.05015466      -1.31177096  T        0
Si      15.26548347      17.40907153      -1.31408136  T        0
Si      13.08521969      15.24980384      -1.31556371  T        0
Si      17.47407283      15.24260567      -1.30068060  T        0
Si      13.48627446       9.04449112      -0.92258334  T        0
Si      11.20336546      13.43637904      -3.11208195  T        0
Si      17.13378252      21.48810941      -0.92120529  T        0
Si      19.23953093      16.98329525      -3.12427124  T        0
Si       9.00593624      13.39324109      -0.91611187  T        0
Si      13.47645766      11.25428626      -3.12036202  T        0
Si      21.45896521      16.93578902      -0.92298185  T        0
Si      17.03907878      19.29007734      -3.10692005  T        0
H       13.27046745      19.56837449       8.65412958  F        0
H       10.92750145      17.22544079       8.65411313  F        0
H       12.70105695      15.05290863       6.89848520  F        0
H       15.44301084      17.79487314       6.89846715  F        0
H       14.73192765      10.71000053       4.85487458  F        0
H       13.68673605      23.15239550       8.63276462  F        0
H        7.34351903      20.83116256       4.61081863  F        0
H        9.66481601      23.15243056       4.61081458  F        0
H       19.78590388      13.44267559       2.53358811  F        0
H       17.05321204      10.71001402       2.53361564  F        0
H        7.34350493      16.80917637       8.63275504  F        0
H       19.78593016      15.76396550       4.85484922  F        0
H       20.83112530      23.15241223       1.48839475  F        0
H        7.34352333       9.66479174       1.48837704  F        0
H       23.15241204      20.83112542       1.48839475  F        0
H        9.66479163       7.34352337       1.48837704  F        0
H       13.68673308       9.66480596      -4.85513656  F        0
H       23.15240156      16.80916493      -2.53384338  F        0
H       16.80913871      20.83112323      -4.85512183  F        0
H        7.34352146      13.68671965      -2.53387758  F        0
H        9.66480591      13.68673318      -4.85513656  F        0
H       16.80916481      23.15240172      -2.53384338  F        0
H       20.83112308      16.80913882      -4.85512183  F        0
H       13.68671953       7.34352150      -2.53387758  F        0
Fe      13.68293637      16.99207997       1.42745531  T        0
Fe      13.70196786      13.78996382       1.60526797  T        1
O       14.30794845      15.41198986       2.16823887  T        2
