136
Lattice="19.123 0.0 0.0 0.0 14.277 0.0 0.0 0.0 7.5465" Properties=species:S:1:pos:R:3:move_mask:L:1:tags:I:1 i=128 E=-2603.9155142701 regions="_JSON [\"Active\"]" n_terminators=32 energy=-911.6176394121419 pbc="F F F"
O        6.05736580       1.14744540       1.47962685  T        0
O       15.69607864       8.44822325       5.73677681  T        0
O       13.42686253       1.08320981       1.29256652  T        0
O        6.02320483      13.11863084       1.46637039  T        0
O       15.79350625       5.77592527       5.89130244  T        0
O       12.87617241      13.00906298       2.06390812  T        0
O       13.23678160      13.18901895       6.19142160  T        0
O        3.35670321       5.78418458       1.86634097  T        0
O       15.68947989       5.83812941       1.83911111  T        0
O       13.25885064       1.08914035       6.19915252  T        0
O        3.36457444       8.47975202       1.75940602  T        0
O       15.75197602       8.51251269       1.84195449  T        0
O        7.06631320       3.44038838       2.56195022  T        0
O       17.22707105      10.61857427       6.18648066  T        0
O       11.81770323       3.15883547       2.20319466  T        0
O        7.09950256      10.83425621       2.54833800  T        0
O       17.18724389       3.47308098       6.11071618  T        0
O       11.91230704      10.48067261       2.14690758  T        0
O       12.04142004      11.03051483       4.99903974  T        0
O        1.88785506       3.55216433       1.42770765  T        0
O        7.53268606      10.86924223       5.24631767  T        0
O       17.01220628       3.53086097       1.32488715  T        0
O       11.93112319       3.18850622       5.05043835  T        0
O        1.90004065      10.72133175       1.42979758  T        0
O        7.44895288       3.62985027       5.25552092  T        0
O       17.11416848      10.78705551       1.35470912  T        0
O        6.57181788       3.27963500      -0.02612008  T        0
O       16.14205862      10.24774313       3.81350534  T        0
O       12.91888717       3.05524415      -0.24773934  T        0
O        2.77000295      10.14687342       3.82079501  T        0
O        6.50062165      10.95840354      -0.02384010  T        0
O       16.16130556       4.12679813       3.80665255  T        0
O       12.77761510      11.42447134      -0.15401699  T        0
O        2.80999100       3.94228048       3.82022462  T        0
O        4.54507216       3.37733025       1.79939880  T        0
O       14.55527996      10.87344311       5.88426706  T        0
O       14.40433294       3.51939914       1.91226485  T        0
O        4.55600151      10.88639926       1.88639109  T        0
O       14.48837075       3.44472648       5.79646104  T        0
O       14.52285981      10.89003765       1.78052816  T        0
O       11.61703324       8.36742457       3.77683008  T        0
O       17.30764142       1.15853310      -0.03125034  T        0
O        7.30626222       8.52742537       3.91381270  T        0
O       11.63180615       5.74183651       3.64218213  T        0
O       17.32451566      13.14326522      -0.01637886  T        0
O        7.57165151       5.88401007       3.65545568  T        0
O        9.45357929      10.14958159       3.67598216  T        0
O        9.46782408       4.25201216       3.55982886  T        0
O       13.57708712       6.97241298       5.06852990  T        0
O        5.64321923       6.72741375       5.18674820  T        0
O        5.54019257       7.14632822       2.48900589  T        0
O       13.44267535       7.27944118       2.36525871  T        0
O       14.37140803       7.24601931      -0.05111619  T        0
O        4.86717506       7.03469816      -0.02531226  T        0
Si       6.02906348       2.79756368       1.44955174  T        0
Si      15.87898672      10.05372434       5.42686094  T        0
Si      13.09803600       2.71038148       1.33270022  T        0
Si       6.03579577      11.46479499       1.47413947  T        0
Si      15.87975472       4.19692847       5.41998646  T        0
Si      13.04286474      11.48460462       1.45616058  T        0
Si      13.06755539      11.54122321       6.13447741  T        0
Si       3.18305942       4.18608832       2.22832322  T        0
Si      15.82809410       4.23339312       2.21169497  T        0
Si      13.03699945       2.73393454       6.12828110  T        0
Si       3.18875523      10.05734189       2.22044599  T        0
Si      15.89620489      10.10643053       2.20921609  T        0
Al      11.17980963      10.12086798       3.83029929  T        0
Si      17.55012238       2.79905641      -0.06228552  T        0
Si       7.85096387      10.10432029       3.81554513  T        0
Al      11.28465808       3.95035081       3.65525141  T        0
Si      17.58499709      11.50331805      -0.06266823  T        0
Si       7.83280202       4.21210929       3.77048876  T        0
Si      14.85218390       7.09565031       6.10102001  T        0
Si       4.24008753       7.11957593       1.49181350  T        0
Si      14.86215729       7.19025795       1.50029962  T        0
Si      12.59565638       7.05765254       3.79692422  T        0
Si       6.46792830       7.13984562       3.81514819  T        0
O       19.15643077       3.09453257      -0.29638580  T        0
O       19.17842667      11.23480111      -0.36315588  T        0
O       12.46808353       3.23021745       7.59219772  T        0
O       12.46076760      11.05715163       7.58863433  T        0
O       14.18533737       7.16544570       7.60184631  T        0
O       15.57717030       8.47588133      -2.08441067  T        0
O       15.49806879       5.81091198      -2.00454067  T        0
O       12.84090568      13.07284522      -2.29163230  T        0
O       12.85102698       1.21447967      -2.28760325  T        0
O       16.74861045      10.78656927      -1.28859151  T        0
O       16.73578789       3.51338276      -1.31111033  T        0
O       11.55515060      10.73390958      -2.38579816  T        0
O       11.55862072       3.51672100      -2.41075106  T        0
O       16.36891703      10.34226856      -3.86846446  T        0
O       16.44414395       4.12694697      -3.88101940  T        0
O       14.26174683      10.77419374      -2.26979240  T        0
O       14.28655289       3.48632605      -2.47019862  T        0
O       13.16268782       7.23460863      -2.31416692  T        0
Si      15.74226409      10.08546750      -2.36696266  T        0
Si      15.74013646       4.22830835      -2.39304053  T        0
Si      12.88580175      11.49852418      -1.79222401  T        0
Si      12.92871511       2.80477309      -1.85453697  T        0
Si      14.67565382       7.17503138      -1.66121436  T        0
H        5.61083456       0.52083913       2.07985367  F        0
H       13.50938118       0.51971906       2.07492992  F        0
H        5.61112307      13.75835362       2.07975607  F        0
H       13.50958039      13.75682243       2.07498241  F        0
H       13.51084140      13.75504172       5.44776650  F        0
H       13.50975252       0.52161770       5.44778410  F        0
H       17.28974254      11.12548174       7.01862795  F        0
H       17.28979000       3.14560285       7.02339196  F        0
H        1.83183800       3.14857954       0.53722786  F        0
H        6.67998430      11.11604137       5.63469228  F        0
H        1.83154049      11.12909684       0.54034962  F        0
H        6.67493943       3.16061899       5.63310767  F        0
H        6.35952436       2.97904956      -0.93427223  F        0
H        3.19647477      10.11404518       4.70477207  F        0
H        6.36236324      11.29726414      -0.93275871  F        0
H        3.19279804       4.15795734       4.69750931  F        0
H       16.56036088       0.51548555      -0.00076213  F        0
H       16.56020813      13.76127004      -0.00066979  F        0
H        4.87489857       7.13453431       5.62990583  F        0
H        4.51175007       7.13509558      -0.92932085  F        0
H       20.08726577       2.93486642      -0.00052988  F        0
H       20.08739461      11.34211663       0.00099186  F        0
H       12.76321398       2.97604733       8.47995589  F        0
H       12.76333233      11.30075111       8.47967776  F        0
H       14.61405599       7.13800201       8.47661577  F        0
H       13.51084140      13.75504172      -2.09873350  F        0
H       13.50975252       0.52161770      -2.09871590  F        0
H       11.39521725      10.28762784      -3.24237523  F        0
H       11.39412799       3.98861071      -3.24188863  F        0
H       15.92569105      10.11584057      -4.70878458  F        0
H       15.92661844       4.15901570      -4.70770176  F        0
H       12.88191441       7.13773895      -3.23957932  F        0
Fe      11.57204480       8.53519700       1.54293428  T        0
Fe       9.70233189       6.24032317       2.78588463  T        1
O        9.58766916       7.76440792       1.50511803  T        2
O       10.67452438       6.88791329       0.94999258  T        3
