136
Lattice="19.123 0.0 0.0 0.0 14.277 0.0 0.0 0.0 7.5465" Properties=species:S:1:pos:R:3:move_mask:L:1:tags:I:1 i=128 E=-2603.9155142701 regions="_JSON [\"Active\"]" n_terminators=32 energy=-911.7524645666217 pbc="F F F"
O        6.24281977       1.16441834       1.70317092  T        0
O       15.58111230       8.49374448       5.76810394  T        0
O       12.96020333       1.13895529       1.55630219  T        0
O        3.45827368       8.46915017       5.85886543  T        0
O        6.12625725      13.12192734       1.54596761  T        0
O       15.57060708       5.80621017       5.79023734  T        0
O       13.17018842      13.20112847       1.35010448  T        0
O        3.42579130       5.77441229       5.91312015  T        0
O       12.91101784      13.12319909       5.89403446  T        0
O        3.42454253       5.75875758       1.62538117  T        0
O        6.26125437      13.06216958       5.70103728  T        0
O       15.65310506       5.76405440       1.73176036  T        0
O       13.01954687       1.11420127       6.04849504  T        0
O        3.48592610       8.44612058       1.69991472  T        0
O        6.15131262       1.13974089       5.99432835  T        0
O       15.56466980       8.44468771       1.81515319  T        0
O        7.28696052       3.54655730       2.44863631  T        0
O       17.12768949      10.69956191       6.14781267  T        0
O       11.93996287       3.50972924       2.44989015  T        0
O        1.91517255      10.66681208       6.15479375  T        0
O        7.20558978      10.80867360       2.54064701  T        0
O       17.16832656       3.66543819       6.19935505  T        0
O       12.05740855      10.97615097       2.47732518  T        0
O        2.00440081       3.46925425       6.07810428  T        0
O       11.80443108      10.69510010       5.25977073  T        0
O        2.01640220       3.44410851       1.45448715  T        0
O        7.16047693      10.64128156       5.22858750  T        0
O       17.17565594       3.54359257       1.43006901  T        0
O       11.95249209       3.43841000       5.08801047  T        0
O        1.97114782      10.68441891       1.40336537  T        0
O        7.27772516       3.46096661       5.08893650  T        0
O       17.20526256      10.53715417       1.32133931  T        0
O        6.71167161       3.17319247      -0.04389470  T        0
O       16.09546745      10.18242411       3.75472298  T        0
O       12.49174155       3.25615161      -0.04092215  T        0
O        2.97582666      10.07485763       3.76685602  T        0
O        6.64317760      11.03686670      -0.02836861  T        0
O       16.11289029       4.12225347       3.79188424  T        0
O       12.48467516      11.02205690      -0.05119544  T        0
O        3.08144891       4.17304947       3.76869225  T        0
O        4.68640672       3.37872919       1.78356805  T        0
O       14.47147615      10.93147950       5.75458802  T        0
O       14.51993989       3.32315807       1.79295263  T        0
O        4.54308366      10.94901037       5.72580143  T        0
O        4.63334066      10.88040766       1.82079391  T        0
O       14.52687848       3.32749440       5.79368135  T        0
O       14.59339551      10.95674755       1.67344640  T        0
O        4.68243977       3.39680072       5.75602183  T        0
O       11.36437375       8.30318942       3.64459143  T        0
O        7.80146735       8.43896547       3.76234668  T        0
O       11.39286059       5.76975357       3.84573672  T        0
O        7.94447863       5.79948712       3.84746335  T        0
O        9.49290233      10.38029807       4.03230425  T        0
O        9.62646698       3.80366688       3.79222389  T        0
O       13.35423838       7.15762766       5.11006297  T        0
O        5.65776029       7.06595862       5.17536430  T        0
O        5.68370480       7.00582598       2.34933245  T        0
O       13.39514407       6.98252957       2.43269448  T        0
O       14.13306861       7.10707010      -0.07574442  T        0
O        5.02042799       7.12107897      -0.11027589  T        0
Si       6.18342163       2.80552016       1.47262066  T        0
Si      15.82373381      10.06778327       5.36501557  T        0
Si      13.01586239       2.78755460       1.44264780  T        0
Si       3.22916308      10.02179278       5.38702019  T        0
Si       6.11937051      11.46737861       1.47639214  T        0
Si      15.83831868       4.22697821       5.40643396  T        0
Si      13.08793216      11.54642402       1.38212235  T        0
Si       3.30766728       4.22019047       5.39462374  T        0
Si      12.98600392      11.48839488       6.09917746  T        0
Si       3.31129793       4.20682885       2.14292532  T        0
Si       6.03801906      11.47317437       6.09309707  T        0
Si      15.85598127       4.19288179       2.17197347  T        0
Si      13.02744026       2.76405169       6.12225691  T        0
Si       3.27904253      10.00798944       2.15208262  T        0
Si       6.16074549       2.79263871       6.09624251  T        0
Si      15.85518521      10.03530142       2.12721700  T        0
Al      11.21256209      10.10048142       3.65098954  T        0
Si       7.87226638      10.08753092       3.85478526  T        0
Si      11.23227634       4.09131518       3.78963811  T        0
Si       8.00802734       4.13054776       3.79227160  T        0
Si      14.68695585       7.15276010       6.08373391  T        0
Si       4.37336879       7.11597348       6.12557862  T        0
Si       4.38843474       7.08831976       1.41137328  T        0
Si      14.72320855       7.08611504       1.45905455  T        0
Si      12.45387383       7.06902102       3.75052795  T        0
Al       6.62543935       7.07462000       3.76760160  T        0
O        6.24329765      13.02813127       9.75384360  T        0
O        7.08310466      10.56020993      10.16078213  T        0
O        7.48505080      10.65167706      12.85235842  T        0
O        6.69554869       3.21368031       7.59527708  T        0
O       12.47251490       3.24092355       7.59111201  T        0
O        6.31890170      11.24781574       7.69384740  T        0
O       12.41748287      11.08024486       7.60197285  T        0
O        4.43456401      11.12633239       9.66986575  T        0
O        7.73251003       8.28362005      11.48977541  T        0
O        9.55763290      10.25503825      11.16871478  T        0
O       14.12007078       7.18911101       7.63264470  T        0
O        5.00917994       7.16765041       7.65064378  T        0
Si       6.01979961      11.45787078       9.29933451  T        0
Si       7.94973093       9.93174773      11.42377407  T        0
H        5.61083456       0.52083913       2.07985367  F        0
H       13.50938118       0.51971906       2.07492992  F        0
H        5.61112307      13.75835362       2.07975607  F        0
H       13.50958039      13.75682243       2.07498241  F        0
H       13.51084140      13.75504172       5.44776650  F        0
H        5.62495998      13.75277707       5.44935724  F        0
H       13.50975252       0.52161770       5.44778410  F        0
H        5.62509051       0.52255101       5.44942550  F        0
H       17.28974254      11.12548174       7.01862795  F        0
H        1.83343022      11.12554006       7.01950242  F        0
H       17.28979000       3.14560285       7.02339196  F        0
H        1.81954193       3.15353441       6.98813474  F        0
H        1.83183800       3.14857954       0.53722786  F        0
H       17.29134854       3.14797220       0.53999843  F        0
H        1.83154049      11.12909684       0.54034962  F        0
H       17.29120144      11.12876736       0.54010345  F        0
H        6.35952436       2.97904956      -0.93427223  F        0
H       12.76076393       2.97683097      -0.93375646  F        0
H        6.36236324      11.29726414      -0.93275871  F        0
H       12.76174962      11.29928001      -0.93393629  F        0
H       14.60982961       7.13673871      -0.92783774  F        0
H        4.51175007       7.13509558      -0.92932085  F        0
H        5.61112307      13.75835362       9.62625607  F        0
H        6.67998430      11.11604137      13.18119228  F        0
H        6.35949513       2.97597070       8.47938261  F        0
H       12.76321398       2.97604733       8.47995589  F        0
H       12.76333233      11.30075111       8.47967776  F        0
H        3.92251131      10.29939702       9.62769700  F        0
H        6.99606890       7.65472256      11.30871427  F        0
H       10.52611047      10.07370688      11.30853277  F        0
H       14.61405599       7.13800201       8.47661577  F        0
H        4.50898861       7.14016697       8.47499567  F        0
Fe      10.15485534       9.87909890       6.17346609  T        0
Fe       9.48497619       7.17072522       4.28927573  T        1
O        8.97190379       8.55381117       6.83774035  T        2
O       10.02208883       7.83038761       6.11482970  T        3
