148
Lattice="24.397 0.0 0.0 0.0 24.397 0.0 0.0 0.0 24.397" Properties=species:S:1:pos:R:3:move_mask:L:1:tags:I:1 i=41 E=-6943.8331748197 regions="_JSON [\"Active\"]" n_terminators=24 energy=-1049.5236839900379 pbc="F F F"
O        9.63927554      14.61842295      -0.06111463  T        0
O       12.32678301       9.55723026       2.44945556  T        0
O       14.85041613      21.07100695       6.13521238  T        0
O       12.17713014      15.66044721       8.86919379  T        0
O        9.43248788      18.39486291       3.42922867  T        0
O       15.72655917       9.58673555       6.13335890  T        0
O       18.31505637      14.76716231       8.71474952  T        0
O       20.85572620      12.09220972       3.56862449  T        0
O       20.89803405      15.61010505      -0.18165752  T        0
O       18.29798966      21.09940429       2.62975154  T        0
O       14.60016995       9.62509952      -0.05527864  T        0
O        9.50901166      12.29363079       2.52158575  T        0
O       20.93306142      14.82979952       6.13742653  T        0
O       15.75363796      12.20200335       8.73415172  T        0
O       18.51064679       9.75634004       3.59490543  T        0
O        9.44911925      15.61281632       6.21294803  T        0
O       14.85499011      18.35153603       8.86435040  T        0
O       12.24493105      21.10206498       3.49755891  T        0
O       15.63806730      21.03198330      -0.06020462  T        0
O       21.09576540      18.23210629       2.57948280  T        0
O       11.58333304      13.89142137       1.95900684  T        0
O       13.85051571      11.69764054       1.81349533  T        0
O       17.45212523      10.20590094       8.11243520  T        0
O       20.29235743      13.06066684       8.07208173  T        0
O       20.40657136      10.17333674       5.41723992  T        0
O       19.20992755      16.49858941       1.77198748  T        0
O       16.50264852      19.25970491       1.79642722  T        0
O       10.25826736      10.28243243       0.91937285  T        0
O       11.21124713      16.61762140       4.43892650  T        0
O       14.05105180      19.26372904       4.29050003  T        0
O       13.97295612      16.55064310       7.05278546  T        0
O       19.19702999      14.08276537       4.26545829  T        0
O       16.61286498      11.42532012       4.44469513  T        0
O       16.44138466      14.06517976       6.94727813  T        0
O       11.92165358      11.91755241       3.65671744  T        0
O       18.26902349       8.74077223       6.07634501  T        0
O       18.29347289      12.22932510       9.58651390  T        0
O       21.82677865      12.31372162       6.05359744  T        0
O       18.48572582      18.50324325       3.33518423  T        0
O       12.09191894       8.67971342      -0.07710200  T        0
O        8.66243298      12.13021810      -0.03948297  T        0
O       12.06311963      14.91115395       6.25735117  T        0
O       12.05491525      18.49221417       2.78505369  T        0
O       15.60848114      18.47598187       6.26394991  T        0
O       18.39473368      15.69478856       6.20893196  T        0
O       18.34212198      12.24546273       2.57458434  T        0
O       14.79559495      12.10247945       6.23961322  T        0
O       10.45045695      16.58578573       1.86560011  T        0
O       14.09016411      10.49540587       4.22579366  T        0
O       20.01220930       7.74200842       4.27398514  T        0
O       16.46658036       7.69667465       7.79309588  T        0
O       20.01727892      14.06342045      10.57695668  T        0
O       22.84184699      10.53384243       4.30080076  T        0
O       20.12802037      13.96136995       1.75348632  T        0
O       16.59020188      20.07942053       4.37375227  T        0
O       16.52253255      10.48034741       1.93944628  T        0
O       10.42194015      14.01435077       4.36831293  T        0
O       22.79008965      14.09911856       7.83035016  T        0
O       16.47901317      10.51719452      10.61934025  T        0
O       13.93698649      20.04603333       1.72442471  T        0
O       20.05536756      16.59139762       4.32711322  T        0
O        7.72835130      10.46822800       1.88298068  T        0
O       16.53122426      16.57715672       7.87991895  T        0
O       13.94462084      13.99093177       7.89698208  T        0
O       10.46145258       7.75620334       1.87503992  T        0
Al      10.89222742      15.23814597       0.92107895  T        0
Si      13.04457016      10.90509322       3.03959315  T        0
Si      16.98597439       9.06042308       7.04249603  T        0
Si      19.23425665      13.51885863       9.24115480  T        0
Si      21.48510398      11.26816586       4.85628494  T        0
Si      19.68437023      15.25088912       0.84920622  T        0
Si      17.45938603      19.73926557       3.03540330  T        0
Al      15.20579291      10.89967793       0.90047214  T        0
Si      10.82906412      13.02031606       3.14848398  T        0
Si      21.45667438      13.56469339       7.04048888  T        0
Si      17.00131773      11.28199314       9.26338701  T        0
Si      19.30019191       9.09402028       4.86749924  T        0
Si      15.25673842      19.69619779       0.82946880  T        0
Si      19.69675808      17.48088962       3.01191153  T        0
Si       9.03022309      11.28859961       1.30614838  T        0
Si      10.79369704      15.30381208       5.31084944  T        0
Si      13.05776056      19.72723704       3.07782569  T        0
Si      15.23081985      17.49470372       7.50782060  T        0
Si      19.64723218      15.31305515       5.25606095  T        0
Si      17.46135231      10.91371137       3.15058629  T        0
Si      15.23262022      13.09123747       7.46239448  T        0
Si      11.27467854       9.05755540       1.28258352  T        0
Si      15.28782657      10.90255578       5.26130582  T        0
Si      19.68536144      13.09773308       3.07875341  T        0
Si      17.41572576      15.27775080       7.44773566  T        0
Si      15.26502440      19.72484339       5.27545243  T        0
Si      10.79007913      17.51327257       3.11685653  T        0
Si      13.03282836      15.29025181       7.51120808  T        0
O       14.88086608      12.01837687      -2.61068827  T        0
O       15.70496623      18.24917955      -2.79344358  T        0
O       12.12483227      14.77924301      -2.55769623  T        0
O       18.67616626      15.60187836      -2.48279696  T        0
O       14.09732887      13.90572570      -0.94685971  T        0
O       16.62258572      16.52791507      -0.96043075  T        0
O       12.97865461      10.13387242      -2.11487945  T        0
O       10.17400599      12.93742552      -2.07287235  T        0
O       12.42600381      15.46580789       0.06656257  T        0
O       15.91391265      12.23449016      -0.09172138  T        0
O       18.30704790      14.71232979       0.02387374  T        0
O       14.95456025      18.42565324      -0.16781691  T        0
O       12.35072827      12.31318202      -3.46566586  T        0
O       16.61527594      14.00025664      -1.90108419  T        0
O       14.03105525      10.52849051      -4.57522493  T        0
O        7.70765496      14.02324814      -1.70461484  T        0
O       14.07787011      16.46794674      -1.80406432  T        0
O       10.53284163      13.99598855      -4.53171867  T        0
O       14.00051781       7.66217591      -1.67672202  T        0
Si      15.39093376      13.00953584      -1.43799783  T        0
Si      15.32566960      17.44622095      -1.40530744  T        0
Si      13.13646666      15.21194249      -1.35852693  T        0
Si      17.52887719      15.24970979      -1.37210373  T        0
Si      13.42563915       9.02961719      -0.96975076  T        0
Si      11.26602801      13.49247329      -3.14944293  T        0
Si       9.05112955      13.43623468      -0.96216004  T        0
Si      13.53494790      11.23374422      -3.18024580  T        0
H       14.01033133      21.15748981       6.62630180  F        0
H       11.67124922      16.48560174       8.95913012  F        0
H        9.33839640      18.82463975       4.28720704  F        0
H       21.15749781      16.48550533      -0.52720743  F        0
H       18.82463422      21.15752504       1.81198193  F        0
H        9.33840600      16.48559124       6.62628668  F        0
H       14.01032599      18.82464129       8.95915608  F        0
H       11.67126808      21.15750273       4.28721909  F        0
H       16.48550522      21.15749796      -0.52720744  F        0
H       21.15752488      18.82463433       1.81198193  F        0
H       20.83116242       7.34351907       4.61081863  F        0
H       16.80917625       7.34350499       8.63275504  F        0
H       20.83112794      13.68672549      10.95404502  F        0
H       23.15243040       9.66481607       4.61081458  F        0
H       23.15239535      13.68673615       8.63276462  F        0
H       16.80915547       9.66477682      10.95402362  F        0
H        7.34352333       9.66479174       1.48837704  F        0
H        9.66479163       7.34352337       1.48837704  F        0
H       16.48557283      18.82464187      -2.86023677  F        0
H       18.82464171      16.48557294      -2.86023676  F        0
H       13.68673308       9.66480596      -4.85513656  F        0
H        7.34352146      13.68671965      -2.53387758  F        0
H        9.66480591      13.68673318      -4.85513656  F        0
H       13.68671953       7.34352150      -2.53387758  F        0
Fe      13.52039660      13.82725897       1.34442048  T        0
Fe      16.92734330      13.46882186       1.36211402  T        1
O       15.27797458      14.71533269       1.58794406  T        2
O       15.74307896      14.01910608       2.79039867  T        3
