135
Lattice="24.397 0.0 0.0 0.0 24.397 0.0 0.0 0.0 24.397" Properties=species:S:1:pos:R:3:move_mask:L:1:tags:I:1 i=41 E=-6943.8331748197 regions="_JSON [\"Active\"]" n_terminators=24 energy=-948.2117396961161 pbc="F F F"
O        9.41025097      14.63659116      -0.23788445  T        0
O       14.66691702      20.86931399       6.07040268  T        0
O       12.27452802      15.74859316       8.76088213  T        0
O        9.69031340      18.48212463       3.66371156  T        0
O       20.92226093      15.72129385       0.03057182  T        0
O       18.28941705      20.89080314       2.44104270  T        0
O        9.76180150      11.92223228       2.70314088  T        0
O        9.63698548      15.59475468       6.28450386  T        0
O       14.81079218      18.25728561       8.80008268  T        0
O       12.09536562      20.73913421       3.82444467  T        0
O       15.96163105      20.83113873       0.01807901  T        0
O       20.93670295      18.26555885       2.56581315  T        0
O       11.34106867      13.91515636       1.92185622  T        0
O       13.07505448      20.18657205       8.10793116  T        0
O       10.27382363      17.44057857       8.13764203  T        0
O       10.02916445      20.40487562       5.51344138  T        0
O       19.14973210      16.33168033       1.96180479  T        0
O       16.37200059      19.04578322       2.01312528  T        0
O       10.39452115      10.29896280       0.61121121  T        0
O       11.24755260      16.41334131       4.37446418  T        0
O       14.35522498      18.94552376       4.17026091  T        0
O       14.19700302      16.38352286       6.97432293  T        0
O       20.32061402      20.22284366       0.82738413  T        0
O       12.26077981      12.09933719       3.74809052  T        0
O       12.15190085      21.81980473       6.25487138  T        0
O       12.27233172      18.24201508       9.68796051  T        0
O        8.73859468      18.14162747       6.12589489  T        0
O       18.42841755      18.36615708       3.46625483  T        0
O        8.67074617      12.11501360       0.21667286  T        0
O       12.20276350      14.81416969       6.25186719  T        0
O       12.17532259      18.06706354       2.60340735  T        0
O       15.78454720      18.41212966       6.31747633  T        0
O       18.42016271      21.80030872      -0.08286316  T        0
O       21.84840221      18.22483244       0.04375112  T        0
O       10.23257700      16.50249937       1.88505224  T        0
O       14.11956079      22.68005497       7.89780042  T        0
O       10.50970509      16.43943998      10.63368528  T        0
O        7.58943951      19.89807526       4.48289510  T        0
O       10.52598633      22.79303977       4.34521594  T        0
O       20.21763835      13.85837520       1.76375469  T        0
O       16.69175189      20.09680086       4.45936809  T        0
O       10.48187225      13.83299759       4.46265245  T        0
O        7.79143440      16.33905339       7.91390728  T        0
O       14.08946676      20.01131250      10.61702999  T        0
O       13.95420212      20.08887820       1.64668233  T        0
O       20.16908049      16.57524714       4.46914630  T        0
O       20.04675332      22.72392960       1.87009595  T        0
O        7.99588790      10.17334217       2.00105942  T        0
O       16.69499545      16.55767063       8.02530027  T        0
O       14.01821980      13.91167379       8.05763681  T        0
O       22.80635087      19.99560448       1.85594034  T        0
Al      10.61837012      15.12675796       0.87662420  T        0
Si      13.48094516      21.39884303       7.09143100  T        0
Si      11.32139647      16.96738531       9.30448546  T        0
Si       9.02179580      19.24256216       4.95616179  T        0
Si      19.67201011      15.16122474       0.92646907  T        0
Si      17.49975755      19.65345227       3.10969750  T        0
Si      10.96652078      12.94362887       3.16534094  T        0
Si       9.11138526      16.89796044       7.11603728  T        0
Si      13.55147976      19.18001782       9.30771880  T        0
Si      11.20232067      21.42632732       4.96777648  T        0
Si      15.25613598      19.63399808       0.84898171  T        0
Si      19.68862540      17.36067752       3.11097989  T        0
Si       9.19392526      11.12365107       1.38922591  T        0
Si      10.88980032      15.14030198       5.33639733  T        0
Al      13.05124472      19.56084448       3.04530123  T        0
Si      15.36384265      17.38527123       7.53410126  T        0
Si      21.48829472      19.17923255       1.31515733  T        0
Si      15.35385363      19.61628811       5.30613278  T        0
Si      10.75394410      17.36853450       3.13396338  T        0
Si      13.17015023      15.20517230       7.50066158  T        0
Si      19.29104006      21.41438561       1.24263376  T        0
O       14.72786834      12.00316502      -2.40181487  T        0
O       15.77059295      18.29633447      -2.62794880  T        0
O       12.05710496      14.65621714      -2.42637425  T        0
O       18.37564773      15.64930719      -2.58640986  T        0
O       14.06077462      13.99983720      -0.77504900  T        0
O       16.49783780      16.40324024      -0.86774978  T        0
O       12.76350908      10.19149749      -1.88947659  T        0
O       10.09039294      12.80857194      -2.01656884  T        0
O       17.54871946      20.25172396      -2.05943802  T        0
O       20.27447868      17.44120393      -1.93880614  T        0
O       12.17318793      15.69534166       0.04229024  T        0
O       15.86332488      12.15613875       0.06757590  T        0
O       18.41914890      14.77859102      -0.04614816  T        0
O       14.92518001      18.34408721      -0.09722146  T        0
O       12.24697212      12.20456439      -3.45887132  T        0
O       18.28667991      18.17431902      -3.51685927  T        0
O       16.55293016      13.87926960      -1.74201279  T        0
O       14.07213457      10.38320739      -4.31955374  T        0
O       22.77383663      16.41294476      -1.72685010  T        0
O       16.52467166      19.95216716      -4.54225214  T        0
O        7.45423934      13.32736880      -1.64546990  T        0
O       13.96621702      16.48368745      -1.75559029  T        0
O       10.47053182      14.01376488      -4.41185783  T        0
O       16.48159177      22.72550735      -1.72252529  T        0
O       20.07500025      16.36859457      -4.43127230  T        0
Si      15.27798458      12.99052692      -1.22017024  T        0
Si      15.28703499      17.37227721      -1.36775767  T        0
Si      13.05721983      15.19898682      -1.26261452  T        0
Si      17.46952835      15.16206670      -1.31480843  T        0
Si      11.19416450      13.39896109      -3.06431024  T        0
Si      17.11704240      21.40467336      -0.98809958  T        0
Si      19.26106310      16.92046327      -3.11904967  T        0
Si       8.93009110      13.25424947      -0.92118499  T        0
Si      13.44523662      11.18002724      -3.02214830  T        0
Si      21.45607618      16.95325223      -0.91090053  T        0
Si      17.04164114      19.17559356      -3.19079336  T        0
H       10.92752655       9.64346076       1.07209470  F        0
H       12.70105063      11.39908942       3.24464026  F        0
H       13.68673605      23.15239550       8.63276462  F        0
H        9.66477675      16.80915558      10.95402362  F        0
H        7.34351903      20.83116256       4.61081863  F        0
H        9.66481601      23.15243056       4.61081458  F        0
H       19.78590388      13.44267559       2.53358811  F        0
H        7.34350493      16.80917637       8.63275504  F        0
H       13.68672539      20.83112809      10.95404502  F        0
H       19.78593016      15.76396550       4.85484922  F        0
H       20.83112530      23.15241223       1.48839475  F        0
H        7.34352333       9.66479174       1.48837704  F        0
H       17.05322892      15.76398032       7.58755865  F        0
H       14.73195660      13.44271185       7.58757947  F        0
H       23.15241204      20.83112542       1.48839475  F        0
H       13.27048028       9.64343273      -1.27111845  F        0
H       15.44303658      11.39914474       0.50251735  F        0
H       13.68673308       9.66480596      -4.85513656  F        0
H       23.15240156      16.80916493      -2.53384338  F        0
H       16.80913871      20.83112323      -4.85512183  F        0
H        7.34352146      13.68671965      -2.53387758  F        0
H        9.66480591      13.68673318      -4.85513656  F        0
H       16.80916481      23.15240172      -2.53384338  F        0
H       20.83112308      16.80913882      -4.85512183  F        0
Fe      13.06300800      16.29944040       1.74289384  T        0
Fe      15.36034846      17.51901521       3.08816078  T        0
O       14.65333966      15.95274429       2.60357652  T        0
