133
Lattice="19.123 0.0 0.0 0.0 14.277 0.0 0.0 0.0 7.5465" Properties=species:S:1:pos:R:3:move_mask:L:1:tags:I:1 i=128 E=-2603.9155142701 regions="_JSON [\"Active\"]" n_terminators=32 energy=-887.4870957960475 pbc="F F F"
O        5.97373411       1.14745255       1.43228078  T        0
O       15.83536658       8.50350738       5.90556382  T        0
O       12.85663420       1.20547761       1.80942849  T        0
O        6.09060866      13.12410233       1.51224401  T        0
O       15.79890612       5.81972793       5.77650121  T        0
O       13.28114678      13.17496643       1.32573216  T        0
O       13.33848618      13.15037857       6.19243209  T        0
O        3.33949785       5.81762405       1.91593488  T        0
O       15.65936604       5.73098138       1.75140433  T        0
O       13.33359342       1.08939003       6.21875975  T        0
O        3.33833781       8.51293256       1.97205318  T        0
O       15.57157371       8.40815675       1.75346627  T        0
O        7.17089444       3.42501221       2.44902548  T        0
O       17.18532356      10.83218210       6.08905571  T        0
O       11.95830774       3.77670123       2.29331797  T        0
O        7.11334352      10.82217310       2.56577560  T        0
O       17.18035290       3.51803554       6.12446896  T        0
O       12.01692173      11.05313053       2.50200049  T        0
O       11.86875247      10.98697694       5.36288956  T        0
O        2.03362186       3.52568784       1.33998749  T        0
O        7.44015287      10.61459957       5.27486388  T        0
O       17.20053452       3.52845590       1.43750032  T        0
O       11.96248186       3.13848653       5.04782016  T        0
O        1.92128909      10.77883066       1.45072885  T        0
O        7.50580476       3.32621510       5.16449664  T        0
O       17.20697851      10.45781087       1.24776269  T        0
O        6.42267276       3.12017521      -0.13720978  T        0
O       16.31389924      10.01003293       3.72663807  T        0
O       12.45700538       3.21963836      -0.04787795  T        0
O        2.87135734      10.44974363       3.84325251  T        0
O        6.60876091      11.01219727      -0.02720088  T        0
O       16.07688874       4.05878872       3.78721387  T        0
O       12.67494036      10.93539748      -0.03781814  T        0
O        2.80832489       3.94090952       3.82206836  T        0
O        4.63035386       3.47370997       1.85722706  T        0
O       14.52031145      10.81401830       5.46463792  T        0
O       14.55208594       3.28761675       1.70594642  T        0
O        4.58511730      10.87689542       1.78063877  T        0
O       14.48399345       3.49161091       5.86144988  T        0
O       14.60093146      10.90443250       1.84513943  T        0
O        1.79827870       1.13472721       0.03194321  T        0
O       11.63852003       8.48582066       3.77335659  T        0
O        7.58383897       8.37274668       3.65996883  T        0
O       11.61543587       5.87195894       3.89152863  T        0
O        7.24835240       5.71026543       3.89292203  T        0
O       -0.05254342       3.04900172      -0.34699682  T        0
O        9.49848563      10.00699918       3.64353445  T        0
O        9.44304020       4.13544997       3.68041595  T        0
O       13.67256068       7.24547737       5.04359160  T        0
O        5.60302462       7.55346519       5.13251999  T        0
O        5.56994394       7.15752642       2.42561248  T        0
O       13.36564020       6.94563586       2.36107532  T        0
O       14.13596420       6.97116260      -0.09125561  T        0
O        4.57077600       7.22643211      -0.04021944  T        0
Si       6.05486923       2.79640374       1.42765433  T        0
Si      15.95074013      10.04749607       5.32967883  T        0
Si      13.01116377       2.81077678       1.46139700  T        0
Si       6.06818061      11.47434088       1.46030793  T        0
Si      15.86679647       4.21539682       5.41465050  T        0
Si      13.12613444      11.52456992       1.43509783  T        0
Si      13.19380236      11.49590854       6.15234245  T        0
Si       3.22098656       4.20401635       2.23977726  T        0
Si      15.86954174       4.15639730       2.17502723  T        0
Si      13.05574516       2.72261238       6.15280344  T        0
Si       3.20280095      10.12826864       2.25623190  T        0
Si      15.90498042       9.98426511       2.14060632  T        0
Si       1.54092302       2.77251952      -0.05022439  T        0
Al      11.32267176      10.27541565       3.87913796  T        0
Si       7.85415416      10.04579901       3.79458603  T        0
Al      11.15919966       4.13196273       3.91293315  T        0
Si       7.83844753       4.14874517       3.77117056  T        0
Si      14.92155171       7.16332273       6.10773108  T        0
Si       4.18466567       7.17303020       1.54655543  T        0
Si      14.74941392       7.05184364       1.43874146  T        0
Si      12.60404946       7.16593094       3.84885438  T        0
Si       6.45939827       7.12780550       3.78377206  T        0
O       12.43361884       3.19862053       7.59799162  T        0
O       13.27192151      10.98022646       7.71869185  T        0
O       14.21875077       7.07585986       7.58862747  T        0
O        3.18171915       8.41609865      -2.03795796  T        0
O        3.49244767       5.79134252      -2.00648499  T        0
O        6.30727073       1.22019081      -2.12682107  T        0
O        7.54112679       3.47523545      -5.30148069  T        0
O        2.34664183       3.45752016      -1.30885994  T        0
O        7.47457687       3.52747806      -2.57113779  T        0
O        2.75335365       3.97551457      -3.86973093  T        0
O        4.83477674       3.48987728      -2.24727189  T        0
O        7.75444827       8.39641842      -3.81939371  T        0
O        7.27426494       5.80451932      -3.95394834  T        0
O        9.61219530       4.53894947      -3.95883119  T        0
O        5.62489421       7.34161284      -2.51389782  T        0
O        5.64060460       7.58384845      -5.23012816  T        0
Si       3.36444750       4.19110736      -2.35029076  T        0
Si       6.24197970       2.82493751      -1.74946779  T        0
Si       7.97931255       4.31353020      -3.93323883  T        0
Si       4.23846517       7.20277779      -1.65354061  T        0
Si       6.55131286       7.27160516      -3.87891458  T        0
H        5.61083456       0.52083913       2.07985367  F        0
H       13.50938118       0.51971906       2.07492992  F        0
H        5.61112307      13.75835362       2.07975607  F        0
H       13.50958039      13.75682243       2.07498241  F        0
H       13.51084140      13.75504172       5.44776650  F        0
H       13.50975252       0.52161770       5.44778410  F        0
H       17.28974254      11.12548174       7.01862795  F        0
H       17.28979000       3.14560285       7.02339196  F        0
H        6.67998430      11.11604137       5.63469228  F        0
H       17.29134854       3.14797220       0.53999843  F        0
H        1.83154049      11.12909684       0.54034962  F        0
H        6.67493943       3.16061899       5.63310767  F        0
H       17.29120144      11.12876736       0.54010345  F        0
H       12.76076393       2.97683097      -0.93375646  F        0
H        3.19647477      10.11404518       4.70477207  F        0
H        6.36236324      11.29726414      -0.93275871  F        0
H       12.76174962      11.29928001      -0.93393629  F        0
H        3.19279804       4.15795734       4.69750931  F        0
H        2.56244240       0.51556882       0.00084209  F        0
H       -0.96435880       2.93479999       0.00082830  F        0
H        4.87489857       7.13453431       5.62990583  F        0
H       14.60982961       7.13673871      -0.92783774  F        0
H       12.76321398       2.97604733       8.47995589  F        0
H       12.76333233      11.30075111       8.47967776  F        0
H       14.61405599       7.13800201       8.47661577  F        0
H        3.36611374       9.37433505      -2.09115109  F        0
H        5.62509051       0.52255101      -2.09707450  F        0
H        6.67730558       3.15591219      -5.64675051  F        0
H        3.20026696       4.16316078      -4.71757657  F        0
H        7.80714812       9.37398274      -3.78410482  F        0
H       10.52510559       4.20251023      -3.78397245  F        0
H        4.87243006       7.14046961      -5.64294599  F        0
Fe       9.73736999       8.02913746       2.84302592  T        0
Fe      11.53758294       5.68171319       1.60187606  T        0
O       10.66187062       7.35721100       1.01865070  T        0
O        9.57214286       6.48560466       1.57799715  T        0
