136
Lattice="19.123 0.0 0.0 0.0 14.277 0.0 0.0 0.0 7.5465" Properties=species:S:1:pos:R:3:move_mask:L:1:tags:I:1 i=128 E=-2603.9155142701 regions="_JSON [\"Active\"]" n_terminators=34 energy=-900.496659958696 pbc="F F F"
O       15.68000126       8.42100342       5.51314353  T        0
O       13.00727658       1.11194272       1.47941249  T        0
O       15.46398160       5.82039999       5.56154376  T        0
O       13.17821949      13.10728852       1.42271790  T        0
O       12.74066435      13.15728331       5.47612610  T        0
O       15.54421527       5.75773657       1.67924518  T        0
O       12.67054781       1.00592361       5.57434673  T        0
O       15.72068489       8.35418672       1.87021562  T        0
O       17.10976770      10.93645757       6.25255004  T        0
O       11.87483692       3.42377463       2.50156120  T        0
O       17.12665483       3.63941028       6.11389187  T        0
O       11.87531439      10.89842703       2.51077559  T        0
O       11.63412382      10.76474872       5.16040222  T        0
O       16.96667500       3.61031124       1.07799515  T        0
O       11.59710448       3.45551977       5.15721811  T        0
O       16.97312232      10.60209060       1.04466051  T        0
O       16.35976537      10.06884095       3.61299638  T        0
O       12.49850654       3.26971415      -0.03854546  T        0
O       16.28623594       4.05514129       3.63099127  T        0
O       12.47813681      11.00576972      -0.04627997  T        0
O       14.28217621      10.96395018       5.55743534  T        0
O       14.43669064       3.32964061       1.87055606  T        0
O       14.22993218       3.12578742       5.62318079  T        0
O       14.41956630      10.74653097       1.81901176  T        0
O       11.43575525       8.50156641       3.68719967  T        0
O       17.33264023       1.11942623       0.00937449  T        0
O       11.53212348       5.77734585       3.77584409  T        0
O       17.31999249      13.13620648       0.06070859  T        0
O        9.49140596      10.39689655       3.50932022  T        0
O        9.50496379       3.97031288       3.46792688  T        0
O       13.27797662       7.27898533       5.14386225  T        0
O       13.39430682       7.16953886       2.45519739  T        0
O       14.14403381       7.30569281      -0.08644945  T        0
Al      15.81849832      10.23606335       5.34243839  T        0
Si      12.95133544       2.76445157       1.46529753  T        0
Al      15.56496774       4.09898522       5.29197783  T        0
Si      12.97880266      11.46659999       1.45405024  T        0
Si      12.83912589      11.56486182       5.95830677  T        0
Si      15.80372652       4.17787159       2.05916626  T        0
Si      12.74327812       2.61395209       5.99328671  T        0
Si      15.84141159      10.02636863       2.06084454  T        0
Si      11.09665515      10.12323445       3.74359530  T        0
Si      17.55546601       2.74278344      -0.19557920  T        0
Si      11.10994016       4.17353163       3.75101535  T        0
Si      17.55822925      11.51741405      -0.20697943  T        0
Si      14.68248155       7.17867518       5.97901695  T        0
Si      14.67344629       7.11692518       1.45760934  T        0
Si      12.39089688       7.17483942       3.77124676  T        0
O       21.56015252       3.20960906       9.00301527  T        0
O       20.93235764       1.12274057       7.44132397  T        0
O       19.20879775       3.04162199       7.59970164  T        0
O       19.21026970      11.30998570       7.99266988  T        0
Si      20.84419688       2.76174433       7.58202066  T        0
O       22.41817021       5.90430739       5.70331693  T        0
O       22.92907278       5.79135749       1.84012448  T        0
O       22.50380420       8.40498573       1.97354108  T        0
O       21.54152130       3.49217343       6.26464552  T        0
O       21.32105564       3.71089129       1.23591626  T        0
O       22.39150976       4.01563071       3.75541316  T        0
O       23.79807941       3.18557997       1.56057546  T        0
O       24.22453485       3.97812969       5.79357793  T        0
O       21.01556712       1.18358977       0.24413870  T        0
O       19.17979409       2.99614552      -0.22649568  T        0
O       19.17827204      11.23667228      -0.37976692  T        0
O       25.05803276       7.41950743       2.33271715  T        0
O       24.04695056       7.38240469      -0.07178234  T        0
Si      22.65589061       4.31119287       5.36129608  T        0
Si      22.62170131       4.19903227       2.12223031  T        0
Si      20.81356238       2.78911935      -0.05756136  T        0
Si      23.61526038       7.25333485       1.52589075  T        0
O       21.61507234       3.17667895      -1.45519382  T        0
O       12.84533516       1.21328097       9.79748927  T        0
O       12.82199211      13.07233739       9.74092750  T        0
O       15.54044870       5.81344392       9.53743023  T        0
O       15.52520592       8.47136631       9.67689477  T        0
O       11.53036603       3.53070488       9.91982348  T        0
O       11.52919793      10.74163028       9.91174551  T        0
O       16.79950554       3.53475739       8.79231155  T        0
O       16.79549828      10.74440574       8.87085980  T        0
O       16.23561439      10.44736488      11.38994397  T        0
O       12.48426522       2.79130536       7.60530132  T        0
O       16.21745763       3.89542943      11.34863966  T        0
O       12.58289289      11.43864200       7.58163578  T        0
O       14.23430103       3.49831224       9.52326139  T        0
O       14.22396852      10.77132894       9.59395000  T        0
O       17.23388244       1.21785453       7.38068100  T        0
O       17.32320083      13.19372817       7.78969464  T        0
O       13.15680854       7.09544210       9.83874115  T        0
O       14.39105646       7.25812006       7.57565559  T        0
Si      12.80039427       2.76220519       9.21333916  T        0
Si      12.81420965      11.50283458       9.20626570  T        0
Si      15.68075987       4.19834970       9.81339697  T        0
Si      15.68965286      10.10441089       9.87387659  T        0
Si      17.57190236       2.83047095       7.51657828  T        0
Si      17.60451620      11.55134806       7.67203233  T        0
Si      14.66918775       7.16553016       9.18390246  T        0
O       16.77587045      11.07352954      -1.60555439  T        0
O       16.82110680       3.23033251      -1.60543433  T        0
H       13.50938118       0.51971906       2.07492992  F        0
H       13.50958039      13.75682243       2.07498241  F        0
H       13.51084140      13.75504172       5.44776650  F        0
H       13.50975252       0.52161770       5.44778410  F        0
H       12.76076393       2.97683097      -0.93375646  F        0
H       12.76174962      11.29928001      -0.93393629  F        0
H       16.56036088       0.51548555      -0.00076213  F        0
H       16.56020813      13.76127004      -0.00066979  F        0
H        8.59739021      10.07362933       3.76217937  F        0
H        8.59637561       4.20354031       3.76204115  F        0
H       14.60982961       7.13673871      -0.92783774  F        0
H       22.00636260       3.98381786       9.40800429  F        0
H       21.68544240       0.51556882       7.54734209  F        0
H       20.08739461      11.34211663       7.54749186  F        0
H       23.07136830       6.61169953       5.84807952  F        0
H       22.48926427       9.38386245       2.08012257  F        0
H       24.75935035       3.15857028       1.68481677  F        0
H       24.75385446       3.15950316       5.84781029  F        0
H       21.68544240       0.51556882       0.00084209  F        0
H       20.08739461      11.34211663       0.00099186  F        0
H       25.36301829       7.13882896       3.22257540  F        0
H       23.63475007       7.13509558      -0.92932085  F        0
H       21.98145514       3.97853683      -1.88343379  F        0
H       13.50938118       0.51971906       9.62142992  F        0
H       13.50958039      13.75682243       9.62148241  F        0
H       11.39369377       3.98884644      10.77146895  F        0
H       11.39439525      10.28733182      10.77116771  F        0
H       15.92688062      10.11457984      12.25007275  F        0
H       15.92754156       4.15729643      12.25107281  F        0
H       16.56036088       0.51548555       7.54573787  F        0
H       16.56020813      13.76127004       7.54583021  F        0
H       12.88235039       7.13795337      10.76981689  F        0
H       16.24044124      10.28985035      -1.86101282  F        0
H       16.23925818       3.97887666      -1.85852020  F        0
Fe      17.96521315       4.94947129       4.67654342  T        0
Fe      16.88858890       7.93837968       3.90364770  T        1
O       18.56676689       6.83877640       4.73900053  T        2
O       18.16140989       6.50760790       3.32572316  T        3
