136
Lattice="19.123 0.0 0.0 0.0 14.277 0.0 0.0 0.0 7.5465" Properties=species:S:1:pos:R:3:move_mask:L:1:tags:I:1 i=128 E=-2603.9155142701 regions="_JSON [\"Active\"]" n_terminators=32 energy=-911.7423741524666 pbc="F F F"
O        5.90563401       1.12881650       1.37494787  T        0
O       15.83620645       8.42097440       5.81341229  T        0
O       13.00199105       1.11950525       1.49553306  T        0
O        3.25087741       8.40242309       5.48469216  T        0
O       15.75676463       5.73164539       5.85552985  T        0
O       12.85439838      13.03300242       1.98177442  T        0
O        3.44210066       5.78652025       5.91939456  T        0
O       13.38306788      13.17056850       6.21592621  T        0
O        3.44934592       5.84372752       1.62479183  T        0
O       15.56007796       5.80501252       1.87490211  T        0
O       12.99068957       1.12614416       6.01266902  T        0
O        3.19576918       8.46983542       1.77926545  T        0
O        6.00633962       1.15011235       6.09258598  T        0
O       15.70073720       8.49484164       1.76966375  T        0
O        7.09808016       3.33079787       2.50903379  T        0
O       17.24576314      10.69612660       6.14069487  T        0
O       11.91341124       3.42898650       2.46460086  T        0
O        7.51135964      10.70482177       2.17485180  T        0
O       17.10225241       3.38696632       6.09483292  T        0
O       11.83505168      10.52284013       2.16300243  T        0
O        1.91613865       3.56851440       6.10381576  T        0
O       12.09507587      11.09372612       4.98865970  T        0
O        1.87952609       3.67016562       1.36299609  T        0
O        6.86144892      11.11016490       4.67705273  T        0
O       17.14683542       3.66637833       1.36054351  T        0
O       11.80872900       3.41220741       5.10385831  T        0
O        7.22581114       3.48642544       5.36710935  T        0
O       17.06008535      10.78367301       1.35526409  T        0
O        6.50926624       3.32199224      -0.03675711  T        0
O       16.11435462      10.16969561       3.80391882  T        0
O       12.46213091       3.24928788      -0.04853863  T        0
O       16.09859333       4.05780419       3.77577302  T        0
O       12.71953214      11.35373490      -0.16557047  T        0
O        2.86175423       4.32665077       3.73194422  T        0
O        4.52321431       3.39162886       1.81223166  T        0
O       14.56317226      10.77297906       5.91780335  T        0
O       14.49787878       3.34341606       1.75150941  T        0
O       14.41421809       3.41164606       5.73245703  T        0
O       14.46098082      10.86544570       1.80900970  T        0
O        4.55782714       3.36222795       5.48255072  T        0
O       11.58361137       8.41146327       3.80555769  T        0
O        7.44503460       8.57882697       3.85490797  T        0
O       11.74743403       5.76566763       3.77072395  T        0
O       17.32186834      13.13953070      -0.00019739  T        0
O        7.55709365       5.96724895       3.67823533  T        0
O        9.43373675      10.31562362       3.94424688  T        0
O        9.63362994       4.34164423       3.65699952  T        0
O       13.65687928       7.13253174       5.03032641  T        0
O        5.61418001       7.12935581       5.15336731  T        0
O        5.54640992       7.30348577       2.46826089  T        0
O       13.37686595       7.32926170       2.31577482  T        0
O       14.36657837       7.13527866      -0.12407596  T        0
O        4.90206806       7.38545384      -0.06984440  T        0
Si       6.01253508       2.78726828       1.44597772  T        0
Si      15.91776936      10.02596517       5.43317168  T        0
Si      12.99928615       2.76947532       1.42964669  T        0
Si      15.83242793       4.15639874       5.38919439  T        0
Si      12.99548513      11.48031818       1.44511213  T        0
Si       3.20376459       4.25844436       5.33465972  T        0
Si      13.12119908      11.53585823       6.14761460  T        0
Si       3.20283771       4.29520309       2.12620637  T        0
Si      15.82314054       4.20600416       2.17077211  T        0
Si      12.95359792       2.77553017       6.10358492  T        0
Si       5.95867089       2.81111667       6.13051252  T        0
Si      15.84834706      10.07919504       2.19668270  T        0
Al      11.15971710      10.18600299       3.88166453  T        0
Si       7.83965139      10.18192392       3.70571587  T        0
Si      11.27380461       4.17076740       3.76852993  T        0
Si      17.57736666      11.49939420      -0.04770965  T        0
Al       7.79638125       4.13909463       3.86568188  T        0
Si      14.90376856       7.11031895       6.10132212  T        0
Si       4.24093775       7.20699545       6.06066101  T        0
Si       4.26151835       7.24947259       1.44770123  T        0
Si      14.79845483       7.17440114       1.44929229  T        0
Si      12.62161434       7.15043749       3.80304950  T        0
Si       6.49578550       7.25323137       3.79090298  T        0
O       19.16870031      11.21025376      -0.32407875  T        0
O        5.84958251       3.28138594       7.71334313  T        0
O       12.43263590       3.21927960       7.59636646  T        0
O       12.46715465      11.06732522       7.58515034  T        0
O       14.20710540       7.13150178       7.58983158  T        0
O        4.70935988       7.54483040       7.60812612  T        0
O       15.62499682       8.46512851      -2.05356234  T        0
O       15.91939615       5.84720975      -1.95225166  T        0
O       12.84769662      13.06304722      -2.26997252  T        0
O       16.77579668      10.78738876      -1.29471499  T        0
O       11.57815741      10.82306395      -5.29312348  T        0
O       11.65214323      10.74015931      -2.56604822  T        0
O       16.36844414      10.32855925      -3.86498769  T        0
O       14.28767577      10.76218029      -2.22322503  T        0
O       11.83078893       8.47379478      -3.96997497  T        0
O       11.34060578       5.87541869      -3.89030621  T        0
O        9.51037774       9.73857253      -3.95271347  T        0
O       13.50403057       6.89969935      -2.61814547  T        0
O       13.42410322       6.72476265      -5.32500873  T        0
Si      15.76295785      10.07361045      -2.35280351  T        0
Si      12.89121224      11.48409702      -1.80050897  T        0
Si      11.13625221       9.96643958      -3.94226889  T        0
Si      14.84237279       7.07253121      -1.70578716  T        0
Si      12.54014900       7.00015886      -3.95081016  T        0
H        5.61083456       0.52083913       2.07985367  F        0
H       13.50938118       0.51971906       2.07492992  F        0
H        3.36611374       9.37433505       5.45534891  F        0
H       13.50958039      13.75682243       2.07498241  F        0
H       13.51084140      13.75504172       5.44776650  F        0
H       13.50975252       0.52161770       5.44778410  F        0
H        3.36626427       9.38386245       2.08012257  F        0
H        5.62509051       0.52255101       5.44942550  F        0
H       17.28974254      11.12548174       7.01862795  F        0
H        6.67686405      11.12256578       1.90156970  F        0
H       17.28979000       3.14560285       7.02339196  F        0
H        1.81954193       3.15353441       6.98813474  F        0
H        1.83183800       3.14857954       0.53722786  F        0
H        6.67998430      11.11604137       5.63469228  F        0
H       17.29134854       3.14797220       0.53999843  F        0
H        6.35952436       2.97904956      -0.93427223  F        0
H       12.76076393       2.97683097      -0.93375646  F        0
H       16.56020813      13.76127004      -0.00066979  F        0
H        4.51175007       7.13509558      -0.92932085  F        0
H       20.08739461      11.34211663       0.00099186  F        0
H        6.35949513       2.97597070       8.47938261  F        0
H       12.76321398       2.97604733       8.47995589  F        0
H       12.76333233      11.30075111       8.47967776  F        0
H       14.61405599       7.13800201       8.47661577  F        0
H        4.50898861       7.14016697       8.47499567  F        0
H       15.75636517       4.89339805      -2.09021006  F        0
H       13.51084140      13.75504172      -2.09873350  F        0
H       12.44599272      11.12072140      -5.64644730  F        0
H       15.92569105      10.11584057      -4.70878458  F        0
H       11.31540413       4.90177526      -3.78397907  F        0
H        8.59739021      10.07362933      -3.78432063  F        0
H       14.25080708       7.13791561      -5.64139813  F        0
Fe      11.45571489       8.57886484       1.58723201  T        0
Fe       9.38184143       6.32578889       2.78365178  T        1
O        9.52401702       7.82720632       1.42870403  T        2
O       10.60821302       6.82045982       1.15719542  T        3
