133
Lattice="20.102 0.0 0.0 0.0 19.731 0.0 0.0 0.0 13.253" Properties=species:S:1:pos:R:3:move_mask:L:1:tags:I:1 i=77 E=-3472.0240129048 regions="_JSON [\"Active\"]" n_terminators=34 energy=-879.8630559125286 pbc="F F F"
O       10.09265404       1.49798064       9.17719923  T        0
O       10.28614390       8.89960641       9.36459449  T        0
O        7.49233051       0.99844182      10.40538840  T        0
O        8.01006435       8.76731759      10.71993261  T        0
O       17.91766705       1.49188616       9.25595904  T        0
O        8.10538436       2.83754370       8.17541233  T        0
O        8.18326978       7.63077004       8.27022224  T        0
O        7.97713816      -0.06541167       7.78912400  T        0
O        8.20355471      10.34583814       8.54270067  T        0
O       11.67524340      10.07220305       5.14199244  T        0
O        6.63039128       0.86143421      12.85106379  T        0
O       16.68762947       0.79327799       7.03367834  T        0
O       13.94723423       0.65261895       2.35593091  T        0
O        4.84986305       1.37189181      10.91682807  T        0
O       15.52461867       8.27927816       9.34999879  T        0
O       15.22575620       1.13969794       9.12930818  T        0
O       16.23257740       2.47489543       5.03984855  T        0
O       14.24147181       9.36538431       5.68552404  T        0
O       14.20264440       1.11918218       6.07937445  T        0
O       14.88665250       9.97271546      11.29963142  T        0
O       16.04451648      -0.16575886       4.66578405  T        0
O       12.38396747       7.45030549       5.26361781  T        0
O       12.08372912       2.57877143       5.35172571  T        0
O       12.17366568       8.87738103       7.43955445  T        0
O       11.93868589       0.88217909       7.40910875  T        0
O       12.89903136       8.59838963       9.98147468  T        0
O       12.65244184       1.10896197       9.93484118  T        0
O        8.25168347       9.14322822       3.63526612  T        0
O        8.56306990       0.76747389       4.53059181  T        0
O       12.10811987      10.94182585       9.12019630  T        0
O       14.54032582       7.28621963      11.58953838  T        0
O       14.48155341       2.35713635      11.38835493  T        0
O        9.89470128       2.86302058       3.44915468  T        0
O       10.11342334       7.15867552       3.87110219  T        0
O       12.67934006       3.00576492       2.52991276  T        0
O       12.39278049       6.95398755       2.59545693  T        0
O       11.69772957       5.03648272       4.42304549  T        0
O       14.08994014       2.25273486       0.33005315  T        0
O       15.33420425       2.93894723       2.58254102  T        0
O       14.59640159       4.77481723      12.49568744  T        0
O        5.87536728       7.15686776       7.06226861  T        0
O        5.98457287       3.27854054       6.41015652  T        0
O       16.32539804       2.84965651      13.31546408  T        0
O       16.27464830       6.60228875      13.58303312  T        0
O        7.74334450       5.21416227       7.20545923  T        0
O        8.16059151       7.37356649       5.66090523  T        0
O        8.42293637       3.22850980       5.55423087  T        0
O        7.73737089       6.55250538       3.10280469  T        0
O        7.17515800       2.50310178       3.22614774  T        0
O       17.88121505       3.53982980       3.17376829  T        0
O       15.88934765       4.96375570       4.31380818  T        0
Al       8.31164635       1.16726130       8.91424283  T        0
Si       8.64965334       8.89776160       9.20486776  T        0
Si       6.22967656       0.52264454      11.28814237  T        0
Si      16.69585413       0.57155046       8.65087293  T        0
Si      15.79156330       1.05544695       5.70295422  T        0
Si      12.64772571       8.96413009       5.88686487  T        0
Si      12.58780846       1.10917921       5.93583243  T        0
Si      11.82586702       9.32665089       8.97814872  T        0
Si      11.46503946       0.60761524       8.93865884  T        0
Si      14.43622426       8.56367305      10.56444487  T        0
Si      14.22533710       1.08510261      10.40719205  T        0
Al      11.52812504       3.30524577       3.76134391  T        0
Si      11.64489552       6.65828290       4.02813730  T        0
Si      13.97826818       2.23521706       1.97446660  T        0
Si      14.79453353       3.17057573      12.77303964  T        0
Si      14.78128226       6.35434501      12.91261285  T        0
Si       7.49268128       6.82497734       7.03910767  T        0
Si       7.52717032       3.62927503       6.83917401  T        0
Si       8.55476749       7.58677418       4.08764214  T        0
Si       8.53018051       2.34879557       4.14330705  T        0
Si      16.33526040       3.47430908       3.75172120  T        0
O       13.72003885       2.50496313      13.82641138  T        0
O       13.67520717       6.65724635      14.09394061  T        0
O       10.03179485      -1.29210837       3.77388407  T        0
O       12.52996252      -1.55420075       2.84168306  T        0
O       11.65561369      -2.79589369       5.11796373  T        0
O       12.09548907      -0.09281299       4.98005326  T        0
O       13.65685342      -1.31688452       0.45844406  T        0
O        5.82439518      -1.06883969      11.04427123  T        0
O       17.02126259      -0.98971993       9.06438486  T        0
O       15.18385026      -1.65432336       2.66827336  T        0
O        5.77328510      -1.18410583       6.63142474  T        0
O       14.59308614      -0.39729633      11.02012450  T        0
O        7.41946341      -2.71561668       8.04146942  T        0
O        8.14350271      -1.61097047       5.65322495  T        0
O        7.50899999      -1.27505958       3.04067953  T        0
O       17.82043362      -1.69197994       3.30825907  T        0
O       10.93233528      -0.92234477       9.21089931  T        0
O       16.25442747      -2.88482606       4.86636713  T        0
Si      11.59816200      -1.43943974       4.18374529  T        0
Si      13.83493100      -0.94838822       2.04898570  T        0
Si       7.35886766      -1.36871988       7.07162992  T        0
Si       8.52902830      -0.84770031       4.25653883  T        0
Si      16.28552441      -1.57476144       3.87650470  T        0
H        7.07153747       8.87866318      10.98534327  F        0
H       18.28958667       1.43588107      10.15436837  F        0
H        7.75914502      10.43742179       7.68600442  F        0
H       11.77602644      10.74421016       4.43990149  F        0
H        6.01931354       0.95312461      13.59787507  F        0
H        4.52133035       1.34033226      10.00226603  F        0
H       16.04398914       8.93133647       8.84225548  F        0
H       15.03932990       8.88569483       5.99268334  F        0
H       14.37509523      10.52815797      11.91539967  F        0
H        8.57917776       9.96978004       4.04186183  F        0
H       11.43576677      11.60834527       9.31342917  F        0
H       13.35632228       7.06085325       2.51220488  F        0
H       14.23421140       3.11626372      -0.07819396  F        0
H        5.18772305       6.48136951       6.94399129  F        0
H        5.18772305       3.38398261       6.94399129  F        0
H       17.11292418       3.38174117      13.10695602  F        0
H       17.11292418       6.48361095      13.10695602  F        0
H        6.78202892       6.52695113       2.93525138  F        0
H        6.78202891       3.33840099       2.93525138  F        0
H       18.37141861       2.74226592       2.89672377  F        0
H       16.04230866       5.86222357       3.96597143  F        0
H       13.73584752       2.53683452      14.79637726  F        0
H       13.73584752       7.32851760      14.79637726  F        0
H       12.25872462      -3.14188650       5.79628408  F        0
H       14.08297195      -0.95342037      -0.34490676  F        0
H        6.45001594      -1.80559776      10.93294989  F        0
H       16.50115869      -1.80559776       8.94650256  F        0
H        5.06295559      -0.97995304       7.26028496  F        0
H       14.37509522      -0.66310164      11.91539968  F        0
H        8.21123678      -3.04022255       8.50458507  F        0
H        6.55301950      -1.44431996       3.13509397  F        0
H       18.17502403      -1.06794529       2.66186474  F        0
H       11.43576677      -1.74328893       9.31342918  F        0
H       15.58652088      -3.08990418       5.53385776  F        0
Fe      11.96341775       4.42921417       6.33386199  T        0
Fe      10.04399301       3.44902512       8.57673813  T        1
O       10.88404546       5.14466986       7.94504099  T        2
O       11.96476363       4.14892463       8.31548393  T        3
