148
Lattice="20.102 0.0 0.0 0.0 19.731 0.0 0.0 0.0 13.253" Properties=species:S:1:pos:R:3:move_mask:L:1:tags:I:1 i=77 E=-3472.0240129048 regions="_JSON [\"Active\"]" n_terminators=34 energy=-1007.5719989708706 pbc="F F F"
O       10.06634775       8.34417342       9.23131307  T        0
O        9.77760766      18.81035880       3.91901576  T        0
O        9.91988187      10.74975034       3.59591050  T        0
O        2.11363296      11.32017142       4.01881536  T        0
O        7.85525752       8.43020272      10.61964567  T        0
O       12.08132921      18.90747931       2.55554204  T        0
O       17.83000109       8.38769688       9.29683810  T        0
O       12.43368477      11.31249112       2.81025704  T        0
O        7.91088410       6.92910067       8.40997953  T        0
O       11.97519253      17.62981430       4.89566466  T        0
O       11.25035897      12.56531167       4.97427680  T        0
O        8.00555828       9.62137986       8.15510238  T        0
O       11.79033615      20.33518576       4.77267375  T        0
O       11.99526275      10.06248734       5.14418044  T        0
O        3.41957967      10.75453785       6.15778096  T        0
O       13.68521106      18.46294811       0.48803622  T        0
O       16.25419766       8.92092251       7.26691275  T        0
O       13.50237806      10.59976146       0.41693445  T        0
O        3.01253367       8.83109472       4.22981976  T        0
O       16.77282446      10.84938470       9.06322735  T        0
O       13.23604208       8.90733151       2.53849001  T        0
O       16.07456968      19.02873512       9.08468956  T        0
O        4.79175758      10.81533222       3.84177451  T        0
O       14.65224681      18.67758126       3.02262413  T        0
O       15.18012801       8.80451828       9.67165104  T        0
O       15.08822482      10.94397722       2.58984722  T        0
O        3.56091029      12.11433445       8.54423405  T        0
O       14.01250831      17.16049229      12.11862282  T        0
O       16.30051397       7.20009160       5.28577697  T        0
O       13.86506763      12.25608106      11.96471170  T        0
O        5.73434522      11.13352153       7.31782051  T        0
O        5.85342068      19.31553744       7.31863086  T        0
O       14.02411629       8.48336043       5.82418382  T        0
O       16.25636387      11.37498527      12.43952499  T        0
O        3.82146208       9.42927760       8.32204214  T        0
O        5.57115557      10.15866387       1.29365618  T        0
O       16.07257399       9.82914890       4.77418000  T        0
O       14.21696814       9.59754110      12.01549962  T        0
O        8.20478342      12.49105367       7.74478514  T        0
O        7.60666172      17.31569080       7.95185922  T        0
O       11.55081397       7.43181641       5.42286663  T        0
O        8.27457227      11.00932796       5.63053201  T        0
O        8.24542136      19.15705278       6.08599131  T        0
O       12.01655252       8.93967792       7.51136293  T        0
O        7.30426912      11.18532043       3.13221221  T        0
O        7.11805820      18.23537222       3.92377865  T        0
O       17.22210095      18.48848300       2.60928092  T        0
O       12.55620245       8.73000776      10.09317337  T        0
O       17.64972887      11.46642035       3.27542231  T        0
O        8.00490236       8.82820303       3.99355685  T        0
O       11.14907515      10.78726025       9.18742170  T        0
O       11.74159976      19.03329084       9.70772925  T        0
O        5.36171831      12.67253343       2.00838014  T        0
O       16.12784327      17.38195323       4.83303066  T        0
O       14.06452445       7.01313528      11.36412452  T        0
O       15.79539737      12.49907106       4.70075524  T        0
O        9.94306919      17.01659262       9.35535334  T        0
O        9.73619609      12.93263028       9.82123330  T        0
O        7.68777459      16.72526136      10.62126024  T        0
O        6.97852213      13.28763763      10.03449405  T        0
O       17.64846006      13.37797209       9.48575947  T        0
O       17.82271991      17.11877188       9.80608558  T        0
O        8.41320790      14.96555301       8.67777729  T        0
O       16.32633534      12.80495173       7.30376615  T        0
O       16.48395653      16.91305411       7.43637738  T        0
O       15.01114121      12.76463291       9.61331645  T        0
O       15.14530868      16.68113268       9.69987630  T        0
O       15.75460273      14.91980706       5.78975543  T        0
O       13.85148841      13.08135433       6.36829134  T        0
O       14.03606750      16.88081667       6.39103834  T        0
O       11.93415476      15.22846952       6.03817324  T        0
O       11.17095816      12.90939159       7.56105767  T        0
O       11.74545703      17.49246962       7.50018691  T        0
O       12.39754549      13.04306609       9.91355080  T        0
O       12.49112308      16.55686275       9.92642121  T        0
O       14.00560017      14.75735454      11.10896024  T        0
Si       8.42271064       8.36160130       9.06508049  T        0
Si      11.40511223      18.88660239       4.04662559  T        0
Si      11.43316305      11.16656172       4.09508627  T        0
Si       3.36407836      10.41176107       4.57002996  T        0
Si      13.56704916      19.24322013       1.92645652  T        0
Si      16.50693095       9.25370359       8.84043807  T        0
Si      13.62545271      10.44565895       2.05282763  T        0
Si       4.17316490      10.88381197       7.61067499  T        0
Si      15.65258654       8.62851333       5.78932585  T        0
Si      14.66097717      11.02553440      12.67142918  T        0
Al       7.41305865      10.94247984       7.24591524  T        0
Si       7.43345334      18.87236446       7.47660343  T        0
Si      12.42507211       8.72278696       5.96477846  T        0
Si       8.38395520      10.42759610       4.07957136  T        0
Si       8.29017059      19.25891534       4.44826659  T        0
Si      11.43282322       9.18752919       9.00929550  T        0
Si       5.75146355      11.18103535       2.57755822  T        0
Si      16.09222010      18.64309933       3.78957203  T        0
Si      14.01722104       8.54753848      10.77822014  T        0
Si      16.14220534      11.16889046       3.84367517  T        0
Si       8.40824485      16.53371187       9.15498210  T        0
Si       8.33072692      13.40982388       9.11650073  T        0
Si      16.43394726      12.43925583       8.88342846  T        0
Si      16.41469138      17.41285197       8.99817132  T        0
Si      15.41161022      13.33792206       6.05282132  T        0
Si      15.59809995      16.51080004       6.11227285  T        0
Al      12.21514578      13.53829463       6.20984368  T        0
Si      12.41575384      16.75436114       6.20143749  T        0
Si      11.13894171      12.40644016       9.14174928  T        0
Si      11.46836766      17.52648619       9.10676078  T        0
Si      13.84143145      13.21358469      10.64432580  T        0
Si      13.91219222      16.33508248      10.70238876  T        0
O        8.13995197      19.66809452       8.73102573  T        0
O       13.77304928      20.85596052       1.63590632  T        0
O       16.37074164      20.06818665       4.59037513  T        0
O        7.96780672      20.79580624       3.93908664  T        0
O       14.35191241      10.95819283      14.28572960  T        0
H        1.81269882      11.30123319       3.09859993  F        0
H        7.07153747       8.87866318      10.98534327  F        0
H       18.28958667       8.42947104      10.15436836  F        0
H        7.84356088       6.72376138       7.45668423  F        0
H       12.34310542      20.30287261       5.56688324  F        0
H       14.08297195      18.77757963      -0.34490676  F        0
H       14.08297195      10.81847671      -0.34490677  F        0
H        3.60112680       8.06005012       4.30646574  F        0
H       13.65226955       8.06005012       2.32001841  F        0
H       16.64304187      19.77694965       8.84122497  F        0
H        4.03182275      12.92715973       8.82439874  F        0
H       14.40563884      18.04556895      12.19637069  F        0
H       16.07046274       6.80354447       4.42856960  F        0
H        5.06295559      18.75104696       7.26028496  F        0
H       16.97340651      10.80641058      12.75613404  F        0
H        4.11249823       9.08086468       9.18193973  F        0
H        5.72719027       9.20254625       1.33756862  F        0
H       11.89104871       6.82542533       4.74838322  F        0
H        6.55301950      18.28668004       3.13509397  F        0
H       18.17502403      18.66305471       2.66186474  F        0
H       18.17502404      10.93300163       2.66186473  F        0
H        8.66651872       8.12235896       3.93953912  F        0
H       11.52310955      19.83515307       9.21116341  F        0
H        5.53537813      12.95496052       1.09262639  F        0
H       14.56690736       6.77574372      12.16034191  F        0
H        6.74596320      16.92620537      10.74076342  F        0
H        6.74596321      12.66985099      10.74076342  F        0
H       18.05303808      13.25020103      10.35989921  F        0
H       18.05303809      16.34585533      10.35989921  F        0
H        8.32625906      20.60985804       8.81306681  F        0
H       13.65226955      21.53630200       2.32001841  F        0
H       15.77833300      20.39380584       5.28891554  F        0
H        8.66651872      21.47399316       3.93953912  F        0
H       13.51650676      10.58100877      14.61047976  F        0
Fe       9.66171637      12.36168093       6.31658408  T        1
