138
Lattice="19.123 0.0 0.0 0.0 14.277 0.0 0.0 0.0 7.5465" Properties=species:S:1:pos:R:3:move_mask:L:1:tags:I:1 i=128 E=-2603.9155142701 regions="_JSON [\"Active\"]" n_terminators=30 energy=-940.8525417992845 pbc="F F F"
O       15.87427892       8.44547945       5.71622553  T        0
O       12.89253144       1.32845738       1.94120348  T        0
O       15.40259334       5.87760003       6.06479662  T        0
O       15.68551230       5.84469585       1.64895038  T        0
O       12.78148114       1.11721535       6.11254045  T        0
O       15.92035930       8.42820401       1.96258498  T        0
O       11.63228788       3.64697007       2.39150142  T        0
O       16.98250221       3.31378612       6.37799708  T        0
O       16.85600676       3.38939982       1.36526538  T        0
O       11.87323253       3.46814330       5.06448693  T        0
O       12.59570429       3.06811500      -0.05712515  T        0
O       16.12232095       4.22200281       3.76260081  T        0
O       14.27061380       3.60541833       1.91807174  T        0
O       14.48106732       3.05257469       5.66092276  T        0
O       11.35641703       8.40887103       3.62046529  T        0
O       17.14479920       1.25871136      -0.03506033  T        0
O       11.70367307       5.84222814       3.87636340  T        0
O        9.53114693       4.19071147       4.08432429  T        0
O       13.41239767       7.49039440       5.15751855  T        0
O       15.41515852       0.12986329       1.43161338  T        0
O       15.22008931       0.11434676       6.50914971  T        0
O       13.52434992       7.23934208       2.48410869  T        0
O       14.41315210       7.43321816      -0.05098463  T        0
O       14.32237353       0.16208549       4.11538732  T        0
Si      12.82987971       2.88319330       1.55973935  T        0
Al      15.76990115       4.31763191       5.48086669  T        0
Si      15.69829539       4.31748435       2.21549188  T        0
Si      12.91550832       2.76875460       6.09908780  T        0
Si      17.52632702       2.87881387      -0.09093113  T        0
Si      11.15132861       4.29501555       3.82506469  T        0
Si      14.72242440       7.34026535       6.15534998  T        0
Al      13.86559966      -0.02675409       2.39333041  T        0
Si      13.78988100      -0.08175435       5.62442964  T        0
Si      14.84965442       7.25623835       1.52339443  T        0
Si      12.52151461       7.25766094       3.79979430  T        0
Si      16.11112257      -0.06200536      -0.05442074  T        0
O       19.22281610       2.63253681       7.90059014  T        0
O       21.21438298       3.60906415       1.42211429  T        0
O       21.35204971       1.36150705      -0.14815718  T        0
O       19.14616937       2.95266043      -0.03356302  T        0
O       22.86779791       0.03266077       1.60321017  T        0
Si      20.80784315       2.91714998      -0.01922285  T        0
Si      22.28928475       0.00981525       0.05737242  T        0
O       21.18686175       3.82758977      -1.34090836  T        0
O       23.64069435       0.04769278      -0.90230804  T        0
O       19.22210663      -3.22323018       7.87695589  T        0
O       21.24458888      -3.48965315       1.49178196  T        0
O       21.37827730      -1.34735931      -0.18080809  T        0
O       19.15978883      -2.91919086      -0.01101086  T        0
Si      20.81140596      -2.90151281       0.01020265  T        0
O       21.26079353      -3.88624013      -1.23701118  T        0
O       17.13060214       3.73175837       9.08776663  T        0
O       12.57383887       3.36513847       7.60398288  T        0
O       16.99682186       1.24070897       8.04093685  T        0
O       15.19465997      -0.53961610       9.12932192  T        0
O       14.19499816       7.58487607       7.71267599  T        0
Si      17.59168262       2.78001336       7.81027277  T        0
Si      16.17171919      -0.15214117       7.85779257  T        0
O       15.70005276       8.41754004      -2.26296271  T        0
O       15.43750699       5.85664935      -2.00284322  T        0
O       12.84778671       1.25685858      -2.05059751  T        0
O       16.81639063       3.66149459      -1.31207757  T        0
O       11.53686736       3.60835809      -2.35763633  T        0
O       16.30962038       4.02595594      -3.82127507  T        0
O       14.25719737       3.48333715      -2.13235325  T        0
O       13.16237397       7.31939325      -2.32312390  T        0
O       15.08296597       0.03835328      -1.29031033  T        0
O       14.48893364       0.00728690      -3.83221474  T        0
Si      15.66583382       4.27590359      -2.32962710  T        0
Si      12.81624003       2.85723600      -1.65387486  T        0
Si      14.67609291       7.27024750      -1.66080444  T        0
Si      13.81115821      -0.03867098      -2.33033381  T        0
O       17.11892037      -3.78374153       9.05749336  T        0
O       12.45720067      -3.43689667       7.67518374  T        0
O       17.15336728      -1.42565815       7.66435816  T        0
Si      17.61473703      -3.01925849       7.69239119  T        0
O       15.93825845      -6.02356064       5.82525950  T        0
O       13.17247225      -1.57441122       2.09614427  T        0
O       13.10356047      -1.50355318       5.94006131  T        0
O       15.94990222      -6.06090308       1.88923592  T        0
O       17.04528857      -3.68032050       6.29725647  T        0
O       11.71717012      -3.80681677       2.43123176  T        0
O       11.88355452      -3.74939947       5.10488482  T        0
O       16.94601214      -3.63191744       1.37359828  T        0
O       16.11723359      -4.18771138       3.83242865  T        0
O       12.61544925      -3.13119730      -0.00681020  T        0
O       14.42327524      -3.79835815       5.86130347  T        0
O       14.30237387      -3.98174058       1.85704908  T        0
O       11.31032907      -6.08523437       3.84923213  T        0
O       16.99235362      -1.41397848      -0.11569499  T        0
O        9.52497811      -4.07016925       4.05738747  T        0
Si      15.86931951      -4.42501989       5.43596774  T        0
Si      12.94447874      -3.08274934       1.60450402  T        0
Si      12.96575756      -3.12875474       6.13779141  T        0
Si      15.81433290      -4.44949710       2.23770047  T        0
Si      11.10763426      -4.43681484       3.82287900  T        0
Si      17.52010236      -2.97255809      -0.01761934  T        0
O       15.67995216      -6.03489474      -2.29354788  T        0
O       12.98046614      -1.42283122      -2.06664786  T        0
O       16.90665559      -3.80266117      -1.29299379  T        0
O       11.60663387      -3.75355915      -2.31864875  T        0
O       16.29063574      -3.93827471      -3.83017170  T        0
O       14.30997467      -3.73140755      -1.97908331  T        0
Si      15.76942448      -4.38542435      -2.33074841  T        0
Si      12.89084833      -3.00604744      -1.60900759  T        0
H       15.75671561       9.37610020       5.45468838  F        0
H       15.75699573       9.38061947       2.07980242  F        0
H       11.31595404       9.37380971       3.76235534  F        0
H        8.59637561       4.20354031       3.76204115  F        0
H       20.08726577       2.93486642       7.54597012  F        0
H       22.00636260       3.98381786       1.86150429  F        0
H       23.80717611       0.00053719       1.86293871  F        0
H       21.98145514       3.97853683      -1.88343379  F        0
H       23.83786620      -0.00082127      -1.85651885  F        0
H       20.08739461      -2.93488337       7.54749186  F        0
H       22.00483182      -3.97984234       1.86785165  F        0
H       22.00608000      -3.98797095      -1.85963567  F        0
H       16.24121950       3.98053732       9.41400179  F        0
H       12.76321398       2.97604733       8.47995589  F        0
H       14.43595606      -0.00016978       9.40393244  F        0
H       14.61405599       7.13800201       8.47661577  F        0
H       15.75671561       9.37610020      -2.09181162  F        0
H       11.39412799       3.98861071      -3.24188863  F        0
H       15.92661844       4.15901570      -4.70770176  F        0
H       12.88191441       7.13773895      -3.23957932  F        0
H       14.07160463      -0.00015943      -4.71417255  F        0
H       16.24088130      -3.98173953       9.41338238  F        0
H       12.76333233      -2.97624889       8.47967776  F        0
H       15.17320598      -6.62175386       5.84596239  F        0
H       15.17712900      -6.61799919       1.68693573  F        0
H       12.12595522      -6.62290057       3.76264176  F        0
H        8.59739021      -4.20337067       3.76217937  F        0
H       15.17320598      -6.62175386      -1.70053761  F        0
H       11.39521725      -3.98937216      -3.24237523  F        0
H       15.92569105      -4.16115943      -4.70878458  F        0
Fe      16.83428058       1.38958823       2.28196198  T        0
Fe      16.04954120       1.62082453       5.17018030  T        1
O       17.36159191       1.13530786       3.97994168  T        2
