144
Lattice="19.123 0.0 0.0 0.0 14.277 0.0 0.0 0.0 7.5465" Properties=species:S:1:pos:R:3:move_mask:L:1:tags:I:1 i=128 E=-2603.9155142701 regions="_JSON [\"Active\"]" n_terminators=36 energy=-957.7358924328404 pbc="F F F"
O       15.79433325       8.45964760       5.56099885  T        0
O       13.04220310       1.12817909       1.46752996  T        0
O       15.79703495       5.80367213       5.57148225  T        0
O       13.03457132      13.14454976       1.47730776  T        0
O       12.71414690      13.19249270       5.48240949  T        0
O       15.62079047       5.82624866       1.74999996  T        0
O       12.71127528       1.08265258       5.47554616  T        0
O       15.63223342       8.46429823       1.69582632  T        0
O       16.96071914      10.99036722       6.22891839  T        0
O       11.85612603       3.41761528       2.50839263  T        0
O       16.95806708       3.25587078       6.23847800  T        0
O       11.89201721      10.83357977       2.51666860  T        0
O       11.48071069      10.85232721       5.16518770  T        0
O       16.93210812       3.62513149       1.06351482  T        0
O       11.48057061       3.42711466       5.16112457  T        0
O       17.00268416      10.65807855       1.07813013  T        0
O       16.30134851      10.15259722       3.60490601  T        0
O       12.46252209       3.25387067      -0.04457466  T        0
O       16.29675956       4.10669356       3.61774607  T        0
O       12.46431950      11.02090760      -0.04409581  T        0
O       14.11210149      10.90099869       5.49690963  T        0
O       14.40002099       3.40278890       1.85093835  T        0
O       14.10985858       3.37256425       5.51412014  T        0
O       14.44035130      10.89527597       1.81167118  T        0
O       11.57921956       8.49794802       3.84005824  T        0
O       17.32114084       1.13779699      -0.00129131  T        0
O       11.59400467       5.77079268       3.81798085  T        0
O       17.33894802      13.15846380       0.02840442  T        0
O        9.50054839      10.19222567       3.39182931  T        0
O        9.49709014       4.09623631       3.38802138  T        0
O       13.50020587       7.13141340       5.11047849  T        0
O       13.40514224       7.16280144       2.43838889  T        0
O       14.09832898       7.11539183      -0.09919102  T        0
Al      15.67139401      10.26097350       5.34697335  T        0
Si      12.93006822       2.77746354       1.46283796  T        0
Al      15.67402475       4.00052090       5.36083745  T        0
Si      12.94651700      11.49370191       1.46019260  T        0
Si      12.72823271      11.59567958       5.95209666  T        0
Si      15.77916529       4.20859586       2.04279989  T        0
Si      12.72167215       2.67796020       5.95318663  T        0
Si      15.80922030      10.07318431       2.02042575  T        0
Si      11.10012153      10.08375029       3.75605549  T        0
Si      17.56625010       2.76061003      -0.19109662  T        0
Si      11.09591248       4.19007747       3.75043413  T        0
Si      17.56892976      11.53333823      -0.20865651  T        0
Si      14.89124948       7.13227261       5.97300964  T        0
Si      14.68091712       7.14348699       1.43959487  T        0
Si      12.49399135       7.13954133       3.81093400  T        0
O       21.60748334       3.20021941       8.96963663  T        0
O       21.56993440      11.08947321       9.03184415  T        0
O       21.04586047       1.19199945       7.25686279  T        0
O       20.99342147      13.11218054       7.33609328  T        0
O       19.18367556       2.97390236       7.72153672  T        0
O       19.20957082      11.26950831       7.65411629  T        0
O       24.17269054       7.18728564       7.65878924  T        0
Si      20.81487627       2.79331298       7.56853868  T        0
Si      20.84383559      11.49299509       7.59229506  T        0
O       22.92839915       8.48799573       5.62562938  T        0
O       22.90904287       5.78482234       5.69510871  T        0
O       22.41843178       5.89986571       1.76291427  T        0
O       21.54111500      10.63815691       6.35027123  T        0
O       21.31505423       3.70818571       6.26880918  T        0
O       21.53242119       3.48681448       1.23447136  T        0
O       21.96215912      10.20052258       3.75109280  T        0
O       22.39858222       4.03152929       3.74904832  T        0
O       24.21466517       3.96891379       1.70523817  T        0
O       24.03432497      10.96458775       5.21000590  T        0
O       23.78937117       3.17405829       5.94370132  T        0
O       20.91986451       1.11016904       0.07680878  T        0
O       19.19515878       3.01863927      -0.15087924  T        0
O       19.18579020      11.24034315      -0.39815410  T        0
O       25.22769885       7.10204313       5.27469876  T        0
Si      22.63781568      10.07150685       5.25794335  T        0
Si      22.61567970       4.19183817       5.38419383  T        0
Si      22.64493238       4.30748881       2.13493706  T        0
Si      20.82942618       2.74788127      -0.07695954  T        0
Si      23.76282279       7.14056543       6.05208140  T        0
O       21.57541005       3.17858926      -1.48978650  T        0
O       12.83957587       1.21645514       9.76823173  T        0
O       12.84105611      13.05846659       9.76751537  T        0
O       15.53772703       5.81303754       9.67212056  T        0
O       15.55582565       8.47430740       9.64996199  T        0
O       11.54519914       3.55156844       9.90760860  T        0
O       11.56783798      10.70900286       9.90345603  T        0
O       16.84314475       3.58324060       8.87245616  T        0
O       16.87477250      10.70927577       8.87348922  T        0
O       16.20761634      10.46134465      11.38285783  T        0
O       12.50737614       2.79268673       7.57954278  T        0
O       16.18374930       3.80112202      11.38132521  T        0
O       12.52776485      11.47443153       7.57982383  T        0
O       14.24155922       3.50731220       9.49604556  T        0
O       14.26991140      10.78845341       9.49770862  T        0
O       17.27224206       1.09803522       7.88255647  T        0
O       17.29955210      13.17675626       7.82481851  T        0
O       13.17846992       7.16019697       9.83741138  T        0
O       14.53220438       7.13694924       7.56582315  T        0
Si      12.81039921       2.77016093       9.19457122  T        0
Si      12.82691696      11.50333696       9.19547636  T        0
Si      15.68987533       4.18158171       9.85499492  T        0
Si      15.71531775      10.10319414       9.84956898  T        0
Si      17.55590790       2.72075828       7.65317835  T        0
Si      17.57546318      11.54695210       7.62711450  T        0
Si      14.70639410       7.14531899       9.20202855  T        0
O       16.76352569      11.07668928      -1.58990661  T        0
O       16.90180956       3.29337342      -1.61938289  T        0
H       13.50938118       0.51971906       2.07492992  F        0
H       13.50958039      13.75682243       2.07498241  F        0
H       13.51084140      13.75504172       5.44776650  F        0
H       13.50975252       0.52161770       5.44778410  F        0
H       12.76076393       2.97683097      -0.93375646  F        0
H       12.76174962      11.29928001      -0.93393629  F        0
H       16.56036088       0.51548555      -0.00076213  F        0
H       16.56020813      13.76127004      -0.00066979  F        0
H        8.59739021      10.07362933       3.76217937  F        0
H        8.59637561       4.20354031       3.76204115  F        0
H       14.60982961       7.13673871      -0.92783774  F        0
H       22.00636260       3.98381786       9.40800429  F        0
H       22.00483182      10.29715766       9.41435165  F        0
H       21.68544240       0.51556882       7.54734209  F        0
H       21.68557806      13.76129914       7.54737584  F        0
H       23.63198861       7.14016697       8.47499567  F        0
H       23.06898247       6.62073046       1.68518482  F        0
H       22.32036723      10.11759060       2.83883070  F        0
H       24.75935035       3.15857028       1.68481677  F        0
H       24.76092223      11.11473374       5.84604825  F        0
H       24.75385446       3.15950316       5.84781029  F        0
H       21.68544240       0.51556882       0.00084209  F        0
H       20.08739461      11.34211663       0.00099186  F        0
H       25.36244212       7.13797332       4.30618001  F        0
H       21.98145514       3.97853683      -1.88343379  F        0
H       13.50938118       0.51971906       9.62142992  F        0
H       13.50958039      13.75682243       9.62148241  F        0
H       11.39369377       3.98884644      10.77146895  F        0
H       11.39439525      10.28733182      10.77116771  F        0
H       15.92688062      10.11457984      12.25007275  F        0
H       15.92754156       4.15729643      12.25107281  F        0
H       16.56036088       0.51548555       7.54573787  F        0
H       16.56020813      13.76127004       7.54583021  F        0
H       12.88235039       7.13795337      10.76981689  F        0
H       16.24044124      10.28985035      -1.86101282  F        0
H       16.23925818       3.97887666      -1.85852020  F        0
Fe      17.43625177       8.57664999       4.15006730  T        0
Fe      17.42419165       5.69318156       4.14408029  T        0
O       18.51596325       7.13130840       4.00809032  T        0
