135
Lattice="20.102 0.0 0.0 0.0 19.731 0.0 0.0 0.0 13.253" Properties=species:S:1:pos:R:3:move_mask:L:1:tags:I:1 i=77 E=-3472.0240129048 regions="_JSON [\"Active\"]" n_terminators=34 energy=-899.5400723998093 pbc="F F F"
O       10.04381386       8.56554034       9.16676182  T        0
O        9.94718373      18.92374202       3.94942094  T        0
O        9.84546660      10.66840302       3.71546958  T        0
O        7.88399568       8.50376461      10.60294699  T        0
O        2.22169260      18.25664006       3.98558098  T        0
O       12.10608033      18.55870751       2.50873512  T        0
O       12.15529246      11.18775532       2.53469018  T        0
O        7.93841005       7.01386421       8.38594343  T        0
O       11.87994384      17.43821278       4.97344602  T        0
O       11.42923332      12.38476230       4.88652410  T        0
O        7.78117693       9.69059139       8.17008699  T        0
O       12.29644523      20.10835879       4.61940911  T        0
O       12.15512083       9.77825696       4.80867162  T        0
O        3.75492881      18.88894705       6.06066135  T        0
O        5.88892412      19.13878027      10.82705573  T        0
O       17.13431740      10.62666166       9.06802791  T        0
O       17.11135230      18.95605575       9.06998232  T        0
O        4.51417324      11.44303259       3.82699300  T        0
O        4.85032715      18.85937929       3.65767294  T        0
O        4.05752131      17.33080810       8.18050621  T        0
O       14.41186160      17.07621431      12.08257999  T        0
O       14.04301096      12.43739753      12.01612082  T        0
O        5.89586213      11.17100614       6.87454395  T        0
O        6.01258743      19.05818137       7.50739567  T        0
O       14.20447979       9.01265493       6.46448316  T        0
O        5.20333735       9.75122943       1.94460465  T        0
O        3.70163784      20.04829184       8.42831368  T        0
O        8.05560536      12.36636700       8.03014166  T        0
O        7.92069494      17.22156919       7.98746238  T        0
O       12.62285606       7.19154544       5.27906963  T        0
O        8.34808663      11.02603241       5.88056863  T        0
O        8.10403130      18.68575657       5.87755459  T        0
O       11.77642004       8.85859370       7.27198514  T        0
O        7.16693406      10.86717778       3.45574009  T        0
O        7.42145020      18.48206440       3.30801437  T        0
O       12.63019766       8.25447859       9.80954193  T        0
O        8.27487744       8.69304947       4.62154057  T        0
O       11.66597384      10.69665242       9.21028379  T        0
O       12.08213855      19.06208251       9.39479710  T        0
O        6.00119753      12.41623683       1.76388733  T        0
O        5.72916940      16.90722658       2.00814266  T        0
O       16.08690359      17.00941245       4.52751047  T        0
O       16.23937769      12.50687535       4.57786397  T        0
O       10.16954058      17.12051932       9.71983422  T        0
O       10.07430623      12.78413235       9.72227726  T        0
O        7.45593451      16.91123420      10.82797617  T        0
O        7.70648347      12.77259456      10.70518535  T        0
O       17.86953550      13.13883948       9.41166963  T        0
O       17.93537905      16.48614159       9.40328406  T        0
O        8.44443204      14.81722174       8.98834088  T        0
O        5.89645736      17.50031905      12.93571620  T        0
O       16.47053360      12.55793847       7.25519506  T        0
O       16.53896759      17.04226175       7.20551273  T        0
O        4.77478859      16.74428454      10.65566664  T        0
O       15.25990702      12.46331549       9.63685169  T        0
O       15.29250545      16.99904195       9.54600304  T        0
O       15.85096604      14.78610735       5.90800064  T        0
O       14.06613692      12.77758978       6.14540179  T        0
O       14.07345540      16.78123520       6.32603754  T        0
O       12.12537150      14.98081509       5.96755616  T        0
O       11.36397498      12.69311746       7.43510320  T        0
O       11.72140005      17.10103540       7.56182139  T        0
O        2.22206790      16.26474385       9.91942744  T        0
O       12.70376825      13.08208236       9.74418423  T        0
O       12.73678543      16.60784997       9.98504454  T        0
O        4.19235147      14.76329035       8.89964090  T        0
O       14.44920080      14.76740231      10.80827015  T        0
Si       8.41895603       8.44034192       9.05311729  T        0
Si      11.56893289      18.73535829       4.05250489  T        0
Si      11.44114323      11.00787078       4.00257996  T        0
Si       3.47835570      19.19822935       4.47850485  T        0
Si       4.38369091      18.82059873       7.56646329  T        0
Si       7.46582558      11.01269574       7.30362676  T        0
Si       7.60194818      18.74947212       7.42683815  T        0
Si      12.68149595       8.70651006       5.93130369  T        0
Si       8.38877130      10.31958689       4.36126167  T        0
Si       8.40856275      19.23404345       4.36356276  T        0
Si      11.56471813       9.10060542       8.87988216  T        0
Si       5.70283203      11.11946989       2.72824526  T        0
Si       5.96835071      18.43881053       2.55150135  T        0
Al       8.56036641      16.54830957       9.56713872  T        0
Si       8.55225615      13.22142811       9.37461624  T        0
Si       6.05045681      17.54844133      11.29417074  T        0
Si      16.65998797      12.19303981       8.82985310  T        0
Si      16.69396605      17.38044990       8.80022809  T        0
Si      15.62974587      13.15948126       5.97564496  T        0
Si      15.63130178      16.40338701       5.99325059  T        0
Al      12.43639257      13.28708523       6.09415401  T        0
Si      12.45908881      16.53612483       6.21259776  T        0
Si      11.47781466      12.30642106       9.02762232  T        0
Si      11.63657334      17.47967422       9.15881907  T        0
Si       3.79816457      16.28900135       9.42842432  T        0
Si      14.12795289      13.18782667      10.55074562  T        0
Si      14.22039620      16.37820966      10.59963237  T        0
O        8.52623905      19.79656820       8.31074297  T        0
O        3.02548066      20.76138385       4.19793924  T        0
O        5.91821975      19.44629699       1.24240196  T        0
O        8.08926101      20.85404361       4.40775329  T        0
H        7.07153747       8.87866318      10.98534327  F        0
H        1.81269882      18.29482316       3.09859994  F        0
H       13.03074803      18.74401529       2.26762503  F        0
H       13.03074804      10.85204106       2.26762503  F        0
H        7.84356088       6.72376138       7.45668423  F        0
H       12.34310542      20.30287261       5.56688324  F        0
H        6.59189912      19.77694965      11.03822749  F        0
H       16.64303307       9.81912404       8.84117322  F        0
H       16.64304187      19.77694965       8.84122497  F        0
H        4.05829635      10.79936776       4.41071281  F        0
H       14.40563884      18.04556895      12.19637069  F        0
H       14.40563885      11.55048737      12.19637067  F        0
H        5.06295559      10.84500939       7.26028495  F        0
H       15.03932990       8.88569483       5.99268334  F        0
H        5.72719027       9.20254625       1.33756862  F        0
H        4.11250309      20.51523557       9.18186357  F        0
H       11.89104871       6.82542533       4.74838322  F        0
H       13.54926599       8.42132791      10.11787432  F        0
H        8.66651872       8.12235896       3.93953912  F        0
H       11.52310955      19.83515307       9.21116341  F        0
H        5.53537813      12.95496052       1.09262639  F        0
H        5.53537813      16.64109584       1.09262638  F        0
H       15.87290964      17.87210703       4.12309272  F        0
H       15.87290964      11.72394929       4.12309273  F        0
H        6.74596321      12.66985099      10.74076342  F        0
H       18.05303808      13.25020103      10.35989921  F        0
H       18.05303809      16.34585533      10.35989921  F        0
H        5.86807409      16.61444052      13.33116226  F        0
H        1.73086688      16.98843832      10.35624453  F        0
H        4.05997682      13.86848065       9.28699688  F        0
H        8.32625906      20.60985804       8.81306681  F        0
H        3.60112680      21.53630199       4.30646574  F        0
H        5.72719026      20.39380587       1.33756863  F        0
H        8.66651872      21.47399316       3.93953912  F        0
Fe       8.25975236      15.55553101       6.92819298  T        0
Fe       9.68285454      12.86012476       6.09760023  T        1
O        8.62084181      14.30945256       5.69126305  T        2
