138
Lattice="24.397 0.0 0.0 0.0 24.397 0.0 0.0 0.0 24.397" Properties=species:S:1:pos:R:3:move_mask:L:1:tags:I:1 i=41 E=-6943.8331748197 regions="_JSON [\"Active\"]" n_terminators=32 energy=-931.785873676745 pbc="F F F"
O       21.65497803       2.59781808       0.06457451  T        0
O       21.88998115       6.20627806       3.48520917  T        0
O       15.54691830       9.69344191       6.25339320  T        0
O       21.00279426      12.45247536       3.52907318  T        0
O       20.82137740       3.63896237      12.34494277  T        0
O       15.68845946       6.22433782       9.80918787  T        0
O       21.85442591      -0.03220767       2.53319206  T        0
O       18.37551784       9.63347442       3.33153204  T        0
O       21.79400376       3.51936274       5.93774108  T        0
O       18.26577580       3.57136792       9.81178152  T        0
O       23.74701865       1.71327248       1.77777894  T        0
O       22.82565309       5.39154949       8.00562267  T        0
O       22.62815386       7.99096847       5.35841986  T        0
O       17.61374759      10.57505208       7.83973477  T        0
O       20.07326281      10.57509019       5.22497969  T        0
O       18.86633449       4.26120135      14.15196938  T        0
O       16.26891507       4.17100969      11.48918758  T        0
O       23.65099283       4.29132418       4.22943870  T        0
O       17.68474471       7.91750605      10.50602532  T        0
O       20.15220621       5.37599131      10.47252272  T        0
O       20.86637414       5.95776048       5.84298805  T        0
O       18.12358991       8.90222661       5.93562553  T        0
O       21.97841265      12.29927794       6.08834764  T        0
O       18.29589467       2.59742562      12.28312249  T        0
O       14.59754436       6.14292714      12.28522874  T        0
O       20.96371816       0.02052856       0.01316516  T        0
O       24.33945625       2.67360959       6.27217004  T        0
O       24.41035091       6.24644976       2.57129136  T        0
O       18.16943833       6.03270294       8.80214132  T        0
O       22.01530162       6.08372201      12.32938384  T        0
O       22.64889866       4.36698371       1.75219148  T        0
O       16.58069314       1.67875466      10.41289132  T        0
O       22.66764644       4.37828243      10.49713646  T        0
O       20.12419652       8.03229227       4.37021457  T        0
O       16.59608876       8.04644158       8.01625059  T        0
O       22.63063727      10.47603134       4.37340440  T        0
O       20.20335491       1.83207271      14.07755256  T        0
O       13.80596343       4.42545326      10.41512908  T        0
O       22.81023339       1.73594928       4.27605770  T        0
O       20.04820911       4.34718966       8.00833477  T        0
Al      23.33027790       3.02398785       0.73741119  T        0
Si      23.67039886       4.87738182       9.29278852  T        0
Si      21.38913780       7.10244143       4.79119296  T        0
Si      16.95993036       9.29937695       7.01971093  T        0
Si      21.38691814      11.47123863       4.80168103  T        0
Si      19.55196803       3.07783070      13.21995721  T        0
Si      15.11585375       5.23807379      11.00460303  T        0
Si      23.21782962       0.79156470       2.98879445  T        0
Si      19.16079569       9.30433190       4.74266068  T        0
Al      21.44902219       4.84214204       7.14641585  T        0
Si      23.58874926       9.25033189       4.88051766  T        0
Si      17.33312116       3.00866573      11.01943190  T        0
Si      23.18635829       3.02944340       5.18912884  T        0
Si      19.17072823       4.82055007       9.27053134  T        0
Si      23.18094203       5.28026760       3.01430790  T        0
Si      21.39555250       4.86787273      11.41504056  T        0
Si      17.00467159       7.05641399       9.27128663  T        0
O       24.61980527       3.61913373       8.79309864  T        0
O       24.55093781       8.71150808       3.66078419  T        0
O       26.31704455       6.71816332       4.25347428  T        0
O       26.33657430       4.22665906       6.72608125  T        0
O       24.47564697       9.80818111       6.14314182  T        0
O       24.62633260       6.06748332       9.92101925  T        0
O       26.29114067       8.04694106       1.82227439  T        0
O       26.22551885       1.76627924       8.00852476  T        0
Si      25.41648233       7.44323968       3.07775973  T        0
Si      25.39979552       3.08126687       7.46300820  T        0
O       24.70002434       2.41815113      -2.82933339  T        0
O       26.24396681       1.80446113      -0.69113827  T        0
O       24.34097623      -0.16425344      -3.56964504  T        0
O       26.51734908       4.18432794      -2.06679076  T        0
Si      25.47844373       3.02791322      -1.50207921  T        0
O       24.60658290      -2.70296091       2.42013571  T        0
O       26.30838316      -0.64315439       1.85221505  T        0
O       24.45086670      -3.70852007      -0.08065400  T        0
O       26.31683373      -1.97758946       4.27211937  T        0
Si      25.41715547      -1.40219463       3.01511200  T        0
O       17.97466666       2.43244485      -3.43363584  T        0
O       20.99777704       2.52618062      -6.38609913  T        0
O       19.98743193       0.95813118      -4.47270722  T        0
O       22.67527155       1.01190646      -1.79418718  T        0
O       24.42699716       3.61793865      -0.42966675  T        0
O       18.36115312      -0.13603404      -2.60813230  T        0
O       21.89691747      -0.05668925      -6.11520481  T        0
O       20.05982999       1.68328760      -1.89081834  T        0
O       22.59053461       1.68650108      -4.35905454  T        0
Si      19.08040600       1.23836208      -3.13807104  T        0
Si      21.34246932       1.28271395      -5.34691540  T        0
Si      23.59948790       1.24214046      -3.14243335  T        0
Si      21.32374264       1.29692994      -0.93194920  T        0
O       18.01757009      -3.42931865       2.46098948  T        0
O       20.99895244      -6.41127687       2.51478217  T        0
O       22.64356713      -1.89410030       0.78760053  T        0
O       20.00463831      -4.47169768       0.96061817  T        0
O       24.35694438      -0.26142583       3.50775939  T        0
O       18.36091388      -2.61589399      -0.12470170  T        0
O       21.90645492      -6.12017251      -0.05535336  T        0
O       20.09930963      -1.88859846       1.66978193  T        0
O       22.60901859      -4.38553469       1.71106103  T        0
Si      21.38549934      -0.96049575       1.25947738  T        0
Si      21.35107019      -5.35607058       1.28732812  T        0
Si      23.59048970      -3.16793888       1.21377532  T        0
Si      19.10392435      -3.13049645       1.24678273  T        0
H       15.43757914      10.38640764       5.57209357  F        0
H       20.10951523      12.72546585       3.23923157  F        0
H       17.77043279      10.38640226       3.23924444  F        0
H       17.22544067      10.92750153       8.65411313  F        0
H       19.36965545       4.82834000      14.75328662  F        0
H       17.22544070       8.65411150      10.92750362  F        0
H       21.54216027      12.99764967       6.60187561  F        0
H       15.05290857       6.89848394      12.70105939  F        0
H       21.54216028       6.60187434      12.99765198  F        0
H       15.76397057       1.24433790      10.70999951  F        0
H       19.78591983       1.24430349      14.73192035  F        0
H       13.44269039       3.56560577      10.71001015  F        0
H       26.95194123       7.17131746       4.82834527  F        0
H       26.95194124       4.82834452       7.17131883  F        0
H       25.19630608       9.34383456       6.60185911  F        0
H       25.19630604       6.60185806       9.34383627  F        0
H       26.93058105       7.58756876       1.24433203  F        0
H       26.93058086       1.24433163       7.58757011  F        0
H       26.95192867       1.27083937      -1.07240246  F        0
H       25.19622735      -0.50276655      -3.24494277  F        0
H       26.93057835       4.85486043      -1.48866112  F        0
H       26.95192866      -1.07240650       1.27083969  F        0
H       25.19622853      -3.24494603      -0.50276481  F        0
H       26.93057847      -1.48866524       4.85486109  F        0
H       17.77043356       2.85994955      -4.28747201  F        0
H       20.10952426       2.85994950      -6.62656333  F        0
H       17.49833355      -0.50278089      -2.85477948  F        0
H       21.54221652      -0.50278066      -6.89866328  F        0
H       17.77043326      -4.28747560       2.85995000  F        0
H       20.10952426      -6.62656664       2.85995001  F        0
H       17.49833238      -2.85478383      -0.50277915  F        0
H       21.54221602      -6.89866750      -0.50277915  F        0
Fe      20.73435451       3.44498549       1.62584486  T        0
Fe      20.37933623       4.30417884       4.62587497  T        1
O       19.66875321       3.69624307       3.07010150  T        2
