142
Lattice="19.123 0.0 0.0 0.0 14.277 0.0 0.0 0.0 7.5465" Properties=species:S:1:pos:R:3:move_mask:L:1:tags:I:1 i=128 E=-2603.9155142701 regions="_JSON [\"Active\"]" n_terminators=34 energy=-949.3967809570461 pbc="F F F"
O        5.83449540       1.08375939       1.32300519  T        0
O       15.64097959       8.43755866       5.79117111  T        0
O       13.03452658       1.12031840       1.47068429  T        0
O        3.56064963       8.52565897       5.80402674  T        0
O        6.07043517      13.16110352       1.46047483  T        0
O       15.55795834       5.76198928       5.80467203  T        0
O       13.28713791      13.19634879       1.31174269  T        0
O        3.49047005       5.85247905       5.80690616  T        0
O       13.25704817      13.20090042       6.20772596  T        0
O        3.41538612       5.82307280       1.71897625  T        0
O        6.23069943      13.15506599       5.92810575  T        0
O       15.71144343       5.76420222       1.69203686  T        0
O       12.88974394       1.12744249       5.89819643  T        0
O        3.39749151       8.50866558       1.70330328  T        0
O        5.85964676       1.09279627       6.20500569  T        0
O       15.72193848       8.44774867       1.74509108  T        0
O        7.18256233       3.33123768       2.17502678  T        0
O       17.20708354      10.60034447       6.19424405  T        0
O       11.97696021       3.42747506       2.47780504  T        0
O        2.02290582      10.74872064       6.13365780  T        0
O        7.14153988      10.86842863       2.48058809  T        0
O       17.10100216       3.54574518       6.14678280  T        0
O       11.92345758      10.95400321       2.16056369  T        0
O        1.89034306       3.72207966       6.19537735  T        0
O       12.00355408      11.07427138       5.04632414  T        0
O        1.89451519       3.63239087       1.38744411  T        0
O        7.31638318      10.80118225       5.11980377  T        0
O       17.19218827       3.51687136       1.44233223  T        0
O       11.81185962       3.49194796       5.11955671  T        0
O        1.92772402      10.76457562       1.44414628  T        0
O        7.10718744       3.23311408       5.05743110  T        0
O       17.21724921      10.65740115       1.39698653  T        0
O        6.05037918       3.09720879      -0.26385419  T        0
O       16.16159416      10.11598580       3.78961634  T        0
O       12.46059350       3.24173348      -0.04688692  T        0
O        3.05072437      10.17883188       3.77328315  T        0
O        6.66762780      11.03905396      -0.04618465  T        0
O       16.07384734       4.10919572       3.77602134  T        0
O       12.94756252      11.20142756      -0.31195083  T        0
O        2.89275258       4.22079730       3.79264417  T        0
O        4.54452892       3.38898162       1.89721942  T        0
O       14.55623515      10.89031706       5.80231792  T        0
O       14.53067505       3.35108730       1.72828009  T        0
O        4.69356061      10.95364822       5.73143566  T        0
O        4.59090447      10.91652751       1.71717906  T        0
O       14.43442909       3.32773237       5.73608814  T        0
O       14.55117174      10.85891938       1.79422459  T        0
O        4.53427856       3.37995458       5.75340954  T        0
O       11.55904671       8.48045097       3.58965625  T        0
O        7.55147620       8.49369581       3.69030700  T        0
O       11.56422702       5.80106347       3.69145800  T        0
O        7.56636504       5.81619769       3.59184330  T        0
O        9.50222741      10.15430044       3.52573484  T        0
O        9.61722472       4.13709762       3.53474199  T        0
O       13.37339556       7.17492877       5.12413945  T        0
O        5.74992679       7.12087782       5.12524349  T        0
O        5.59143445       7.20489112       2.44753246  T        0
O       13.52657945       7.08286169       2.44629618  T        0
O       14.16173700       7.15347809      -0.06470609  T        0
O        4.96069884       7.16490111      -0.06702009  T        0
Si       5.93714006       2.73765946       1.32204418  T        0
Si      15.87642371      10.02370640       5.40624314  T        0
Si      13.03901253       2.77087963       1.41556076  T        0
Si       3.33674577      10.09478021       5.38525494  T        0
Si       6.07801409      11.51009040       1.41232911  T        0
Si      15.78786388       4.19168252       5.38962378  T        0
Si      13.15014822      11.54360919       1.27866078  T        0
Si       3.22236467       4.27869739       5.39941729  T        0
Si      13.08876427      11.55150742       6.13848144  T        0
Si       3.19932298       4.25534696       2.18390275  T        0
Si       6.18671521      11.51034784       6.09438920  T        0
Si      15.86859651       4.19456276       2.15178914  T        0
Si      12.93889352       2.76967386       6.08815114  T        0
Si       3.25010701      10.08151648       2.15016003  T        0
Si       6.00534734       2.74471422       6.12845973  T        0
Si      15.90086042      10.03197679       2.17176941  T        0
Al      11.34997962      10.31355535       3.67391545  T        0
Si       7.85201438      10.13113571       3.74173283  T        0
Si      11.26824844       4.15994105       3.74317932  T        0
Al       7.76620535       3.98053750       3.67896827  T        0
Si      14.70277857       7.13376435       6.09782922  T        0
Si       4.42364193       7.16002083       6.10186413  T        0
Si       4.30393895       7.16606253       1.44042014  T        0
Si      14.81876420       7.11812286       1.44624134  T        0
Si      12.53646990       7.15110039       3.72883975  T        0
Si       6.58322483       7.14239303       3.72817511  T        0
O        6.53627136       3.29702789       7.58313598  T        0
O       12.42417802       3.18772235       7.59084551  T        0
O        6.69758406      11.08064023       7.59453337  T        0
O       12.50973222      11.02944583       7.58536721  T        0
O       14.11622510       7.13436579       7.63668322  T        0
O        5.01190689       7.17433936       7.63933429  T        0
O       12.92669543      13.02501923      -2.37162555  T        0
O        6.20645004       1.27842850      -2.32505479  T        0
O       11.77879172      10.43756696      -5.41462777  T        0
O       11.97862730      10.60792441      -2.71752020  T        0
O        7.27361592       3.75915515      -2.41113256  T        0
O       14.65961533      11.03678784      -2.41427379  T        0
O        4.53002404       3.32882351      -2.48725187  T        0
O       11.33790304       8.23929778      -3.87468128  T        0
O        9.56136207      10.27957207      -3.90033693  T        0
Si      13.12859707      11.45353315      -1.91866882  T        0
Si       6.00459238       2.85854889      -1.87710409  T        0
Si      11.16890388       9.89437333      -3.96578711  T        0
H        5.61083456       0.52083913       2.07985367  F        0
H       13.50938118       0.51971906       2.07492992  F        0
H        5.61112307      13.75835362       2.07975607  F        0
H       13.50958039      13.75682243       2.07498241  F        0
H       13.51084140      13.75504172       5.44776650  F        0
H        5.62495998      13.75277707       5.44935724  F        0
H       13.50975252       0.52161770       5.44778410  F        0
H        5.62509051       0.52255101       5.44942550  F        0
H       17.28974254      11.12548174       7.01862795  F        0
H        1.83343022      11.12554006       7.01950242  F        0
H       17.28979000       3.14560285       7.02339196  F        0
H        1.81954193       3.15353441       6.98813474  F        0
H        1.83183800       3.14857954       0.53722786  F        0
H       17.29134854       3.14797220       0.53999843  F        0
H        1.83154049      11.12909684       0.54034962  F        0
H       17.29120144      11.12876736       0.54010345  F        0
H       12.76076393       2.97683097      -0.93375646  F        0
H        6.36236324      11.29726414      -0.93275871  F        0
H       14.60982961       7.13673871      -0.92783774  F        0
H        4.51175007       7.13509558      -0.92932085  F        0
H        6.35949513       2.97597070       8.47938261  F        0
H       12.76321398       2.97604733       8.47995589  F        0
H        6.35946036      11.30224636       8.48133548  F        0
H       12.76333233      11.30075111       8.47967776  F        0
H       14.61405599       7.13800201       8.47661577  F        0
H        4.50898861       7.14016697       8.47499567  F        0
H       13.51084140      13.75504172      -2.09873350  F        0
H        5.62509051       0.52255101      -2.09707450  F        0
H       12.44599272      11.12072140      -5.64644730  F        0
H        7.72584421       3.99139588      -3.24276680  F        0
H       15.19994748      10.29594087      -2.09275354  F        0
H        3.91490408       3.97370239      -2.09385012  F        0
H       12.12595522       7.65409943      -3.78385824  F        0
H        8.59739021      10.07362933      -3.78432063  F        0
Fe       9.29512991       5.83066129       2.39490099  T        0
Fe       9.83528580       8.47288363       2.37580834  T        0
O        8.83756871       7.33698166       1.07511184  T        0
O       10.29142141       6.95175272       1.07724432  T        0
