145
Lattice="19.123 0.0 0.0 0.0 14.277 0.0 0.0 0.0 7.5465" Properties=species:S:1:pos:R:3:move_mask:L:1:tags:I:1 i=128 E=-2603.9155142701 regions="_JSON [\"Active\"]" n_terminators=34 energy=-980.4637647604044 pbc="F F F"
O        6.18429452       1.15703025       1.60871238  T        0
O       15.54171069       8.50067885       5.73152772  T        0
O       13.32669288       1.09487009       1.31891524  T        0
O        3.55462015       8.48240614       5.75403279  T        0
O        6.18985077      13.11032375       1.63024790  T        0
O       15.59175040       5.82486649       5.75647328  T        0
O       13.08116460      13.17033273       1.41985365  T        0
O        3.51866169       5.79474956       5.77589265  T        0
O       13.03130392      13.17636984       6.07164237  T        0
O        3.51661034       5.79116067       1.75674586  T        0
O        6.19672125      13.10813034       5.91240514  T        0
O       15.67469478       5.83329312       1.81539898  T        0
O       13.20319195       1.07825243       6.17914475  T        0
O        3.55189257       8.47971612       1.80034821  T        0
O        6.17160242       1.15806245       5.95229019  T        0
O       15.62991118       8.51260413       1.93552979  T        0
O        7.12207624       3.58344596       2.45647872  T        0
O       17.21070672      10.53839669       6.24137005  T        0
O       11.92310921       3.25758692       2.35320847  T        0
O        1.91834547      10.58721154       6.20220337  T        0
O        7.07104967      10.65070596       2.46182351  T        0
O       17.23512266       3.78876016       6.28630500  T        0
O       11.97416545      10.83271536       2.39601146  T        0
O        1.90845378       3.65898368       6.15272053  T        0
O       12.02004568      10.77878610       5.13353130  T        0
O        1.92790193       3.63654156       1.38258090  T        0
O        7.06668903      10.64045013       5.08919509  T        0
O       17.09100454       3.57105034       1.31780819  T        0
O       12.03112641       3.38681179       5.23196257  T        0
O        1.91753216      10.58620740       1.35426447  T        0
O        7.08154479       3.59543015       5.08507258  T        0
O       17.21059926      10.63675056       1.38612710  T        0
O        6.63630391       3.24741600      -0.04002198  T        0
O       16.14153271      10.27547932       3.82227624  T        0
O       12.87028830       3.09601327      -0.18199443  T        0
O        2.99092279      10.17609890       3.77717461  T        0
O        6.61746647      11.02233089      -0.03390541  T        0
O       16.28213698       4.15790826       3.79660009  T        0
O       12.57540996      10.95388473      -0.05565234  T        0
O        3.01465856       4.11494911       3.76875009  T        0
O        4.56552560       3.30528321       1.73743106  T        0
O       14.59065940      11.01965239       5.89307473  T        0
O       14.51143330       3.43689847       1.91301390  T        0
O        4.52998789      11.00005717       5.81884501  T        0
O        4.53125036      10.99562565       1.73369481  T        0
O       14.65132806       3.29171364       5.70546738  T        0
O       14.58199847      10.99420612       1.76072486  T        0
O        4.53996768       3.29605788       5.82052243  T        0
O       11.28634100       8.29510881       3.73979486  T        0
O       17.29936294       1.16856480      -0.01187685  T        0
O        7.75556025       8.35803095       3.76744657  T        0
O       11.35877701       5.82830026       3.73795442  T        0
O        7.79458154       5.87102631       3.76988617  T        0
O        9.42897238      10.33129224       3.78053234  T        0
O        9.46740223       3.88182982       3.81605753  T        0
O       13.34236708       7.11676655       5.11598038  T        0
O        5.75525504       7.09325794       5.12007335  T        0
O        5.75140497       7.08811432       2.42666036  T        0
O       13.40342912       7.11455310       2.43560992  T        0
O       14.40464727       7.26745696      -0.05343740  T        0
O        4.99350345       7.14408313      -0.07939408  T        0
Si       6.09620081       2.80043501       1.44619270  T        0
Si      15.84392257      10.09079873       5.42678849  T        0
Si      13.11377347       2.74142621       1.39986375  T        0
Si       3.25788974      10.06197514       5.39573645  T        0
Si       6.07493525      11.46968064       1.45248033  T        0
Si      15.92017303       4.25410196       5.39541104  T        0
Si      13.04802842      11.50399306       1.42243492  T        0
Si       3.25739184       4.21661532       5.38861721  T        0
Si      13.02862751      11.51129056       6.13316014  T        0
Si       3.26733161       4.21230786       2.15033368  T        0
Si       6.07587083      11.46867529       6.09610977  T        0
Si      15.88680451       4.24866729       2.20659068  T        0
Si      13.17140144       2.73797423       6.16795102  T        0
Si       3.25769696      10.06001924       2.15872688  T        0
Si       6.07547273       2.80154072       6.10414556  T        0
Si      15.87264360      10.11468629       2.21075594  T        0
Al      11.18149448      10.15787931       3.76574114  T        0
Si      17.56472219       2.80737211      -0.07022203  T        0
Si       7.85907417      10.08638396       3.77480149  T        0
Al      11.23780945       3.97701299       3.79026808  T        0
Si       7.89645231       4.13228008       3.78164571  T        0
Si      14.68725711       7.15064799       6.07227393  T        0
Si       4.41167384       7.12957004       6.08744234  T        0
Si       4.40957851       7.12925012       1.45783423  T        0
Si      14.78759493       7.17793497       1.53140428  T        0
Si      12.44970312       7.09000888       3.75662680  T        0
Si       6.64770517       7.10763937       3.77203036  T        0
O       19.17345416       3.05231372      -0.35644691  T        0
O       12.90514452       1.26891469       9.81444666  T        0
O       11.86167242       3.77074553       9.94391723  T        0
O        6.62631688       3.25255679       7.58507688  T        0
O       12.99085711       3.09921108       7.75502830  T        0
O        6.61734686      11.02529882       7.58396207  T        0
O       12.45648129      11.04025298       7.60448314  T        0
O       14.59993603       3.27961683       9.94389695  T        0
O       14.13333339       7.13370186       7.62542794  T        0
O        4.99246584       7.13336054       7.62588502  T        0
Si      13.09907461       2.85200676       9.36365221  T        0
O       15.76277884       8.39941247      -2.15542217  T        0
O       15.46911348       5.81055857      -2.02408291  T        0
O       12.82751192       1.21433294      -2.19708810  T        0
O       16.74228384       3.52232690      -1.30994446  T        0
O       11.56253238       3.54414707      -2.39215883  T        0
O       16.42220448       4.08588214      -3.87096569  T        0
O       14.28276888       3.46225768      -2.40912684  T        0
O       13.21490838       7.35115292      -2.34906989  T        0
Si      15.72595807       4.22893512      -2.38042873  T        0
Si      12.91149584       2.81568039      -1.78908459  T        0
Si      14.71208746       7.21687655      -1.66095127  T        0
H        5.61083456       0.52083913       2.07985367  F        0
H       13.50938118       0.51971906       2.07492992  F        0
H        5.61112307      13.75835362       2.07975607  F        0
H       13.50958039      13.75682243       2.07498241  F        0
H       13.51084140      13.75504172       5.44776650  F        0
H        5.62495998      13.75277707       5.44935724  F        0
H       13.50975252       0.52161770       5.44778410  F        0
H        5.62509051       0.52255101       5.44942550  F        0
H       17.28974254      11.12548174       7.01862795  F        0
H        1.83343022      11.12554006       7.01950242  F        0
H       17.28979000       3.14560285       7.02339196  F        0
H        1.81954193       3.15353441       6.98813474  F        0
H        1.83183800       3.14857954       0.53722786  F        0
H        1.83154049      11.12909684       0.54034962  F        0
H       17.29120144      11.12876736       0.54010345  F        0
H        6.35952436       2.97904956      -0.93427223  F        0
H        6.36236324      11.29726414      -0.93275871  F        0
H       12.76174962      11.29928001      -0.93393629  F        0
H       16.56036088       0.51548555      -0.00076213  F        0
H        4.51175007       7.13509558      -0.92932085  F        0
H       20.08726577       2.93486642      -0.00052988  F        0
H       13.50938118       0.51971906       9.62142992  F        0
H       11.39369377       3.98884644      10.77146895  F        0
H        6.35949513       2.97597070       8.47938261  F        0
H        6.35946036      11.30224636       8.48133548  F        0
H       12.76333233      11.30075111       8.47967776  F        0
H       15.20044406       3.97845058       9.62755517  F        0
H       14.61405599       7.13800201       8.47661577  F        0
H        4.50898861       7.14016697       8.47499567  F        0
H       15.75671561       9.37610020      -2.09181162  F        0
H       13.50975252       0.52161770      -2.09871590  F        0
H       11.39412799       3.98861071      -3.24188863  F        0
H       15.92661844       4.15901570      -4.70770176  F        0
H       12.88191441       7.13773895      -3.23957932  F        0
Fe       9.64554305       7.04966698       3.75205277  T        1
