147
Lattice="20.102 0.0 0.0 0.0 19.731 0.0 0.0 0.0 13.253" Properties=species:S:1:pos:R:3:move_mask:L:1:tags:I:1 i=77 E=-3472.0240129048 regions="_JSON [\"Active\"]" n_terminators=34 energy=-995.3015203999215 pbc="F F F"
O       10.15319537       8.28852533       8.83670178  T        0
O       -0.02304029       8.23408164      11.05034130  T        0
O        7.89575859       9.02239307      10.12443314  T        0
O        7.65136110       7.35221479       8.16475283  T        0
O       12.33840649      12.61535702       4.60624001  T        0
O        8.46595585       9.91518343       7.67248500  T        0
O        3.76856662      11.35871807       5.77050912  T        0
O        6.36728573       8.89886002      12.59703490  T        0
O        6.21667403      11.02411310      11.03498418  T        0
O        4.95347144       8.56203983      10.05003590  T        0
O       15.17220310       8.52999720       9.02277272  T        0
O        4.30546409      12.59527875       8.05127647  T        0
O       14.58820463      12.36634679      11.81442402  T        0
O        6.10951092      10.94450903       7.03779020  T        0
O       16.18369244      10.27316500      12.59334464  T        0
O        3.87740968       9.93587529       8.03515116  T        0
O       14.08640119       9.79226437      11.20776465  T        0
O        8.03754233      12.59167606       7.79443089  T        0
O        7.44886956      17.35518254       8.00343084  T        0
O        8.27454923      11.36287337       5.45641365  T        0
O        2.21589344       8.83074103      12.28997604  T        0
O       12.09211166       9.53302410       7.33470458  T        0
O        2.27406995       8.68381995       9.67622652  T        0
O       12.67390251       8.23675955       9.67421771  T        0
O        0.96283610      10.72004792      10.86223468  T        0
O       11.31853188      10.60999331       9.50360738  T        0
O        3.71587612       7.24450303       8.01913995  T        0
O       14.59691708       7.08096304      11.22503696  T        0
O        9.84304558      17.45387969       9.14906197  T        0
O       10.00147095      12.83496937       9.58072140  T        0
O        7.66919722      16.65728203      10.58652626  T        0
O        7.52193667      13.25737586      10.35228599  T        0
O        8.66197421      15.03309890       8.73086516  T        0
O        6.34735127      12.87538547      12.76018105  T        0
O        4.87708876      13.35468137      10.56345541  T        0
O       15.55346015      13.26134679       9.45768552  T        0
O       14.12980682      13.81891775       6.25500646  T        0
O       11.83265354      14.94481613       5.90466294  T        0
O        1.55571350      12.81885675      12.38544093  T        0
O       11.84771606      12.60123863       7.24096279  T        0
O        2.38227839      12.73238627       9.85102487  T        0
O       12.86286308      13.01179119       9.89444958  T        0
O        3.47924657      14.99665361       9.01372007  T        0
O       14.33651926      14.92822755      11.11036180  T        0
Si       8.54304286       8.63185031       8.69868103  T        0
Al       6.30772161       9.25728007      10.83205452  T        0
Si       4.50537660      11.18990621       7.22905235  T        0
Si      14.65131811      10.82439374      12.34201022  T        0
Si       7.71382121      11.19785303       6.99467356  T        0
Si       1.34949874       9.13072488      10.93782241  T        0
Si      11.57727263       9.11523149       8.83386615  T        0
Si       3.75477022       8.59254409       8.97050854  T        0
Si      14.17960530       8.41313426      10.34223077  T        0
Si       8.42438161      16.61566785       9.11120881  T        0
Si       8.55747058      13.44265350       9.08843865  T        0
Si       6.22240105      12.63360970      11.10035987  T        0
Si      12.53034074      13.44085887       6.03463925  T        0
Si       1.18267326      12.33426329      10.87115680  T        0
Al      11.62296574      12.33396237       8.91667931  T        0
Si       3.76289413      13.41566276       9.34987894  T        0
Si      14.29115349      13.37705219      10.53461436  T        0
O       10.25114602      10.97710620      17.34130272  T        0
O        2.42496904      10.97294627      17.03842522  T        0
O       12.57938673      10.93120221      16.15154532  T        0
O        1.69600891      12.54376914      15.02175633  T        0
O       12.18056386      12.74796292      18.10769190  T        0
O        1.77731434       9.91684080      14.66155098  T        0
O       12.45442917      10.25498968      18.80521089  T        0
O        3.58686653      10.99278371      19.37324945  T        0
O       13.69098678      10.63920214      13.67126850  T        0
O        3.54334238       8.70234443      17.88713352  T        0
O       14.22692108       8.83649328      15.66662235  T        0
O        5.08519567      10.68330001      17.13956540  T        0
O       15.21779886      11.28889381      15.61627633  T        0
O        6.26271488       7.35544509      14.78653184  T        0
O        4.10433840       8.77536904      14.14182053  T        0
O        6.35318428      10.06710236      14.81603071  T        0
O        1.93480142       7.25869366      14.41488027  T        0
O        8.60240069      11.02510406      19.34565477  T        0
O        7.64854746      11.32646470      16.80418432  T        0
O        8.42910402       8.97485441      17.55585451  T        0
O        5.80410730      12.54758626      15.34625347  T        0
O        0.11023487       7.05179958      16.39857112  T        0
O       10.43886114       7.38378257      17.10250378  T        0
O        2.61748164       6.39158676      16.84569791  T        0
O        1.12517516       4.85359252      15.18863522  T        0
O        3.61908857       6.39671636      19.25316666  T        0
O        5.25311760       6.78776270      17.18780033  T        0
O        5.79435092      14.94819644      14.46615256  T        0
O        3.86857381      13.20727492      13.60107607  T        0
O        1.85969414      14.96037480      14.03627820  T        0
O        8.86929062       6.87255577      19.20328968  T        0
O        7.85354835       6.51522481      16.74107324  T        0
O        6.13056029       4.85294853      15.45899521  T        0
Si       1.44111976      11.09318015      15.73889155  T        0
Si      11.85868041      11.21361883      17.60089798  T        0
Si       3.65925679      10.32601512      17.87707236  T        0
Si      13.87299984      10.40914140      15.28184377  T        0
Si       5.71407070       8.69278284      14.06895436  T        0
Si       2.48675569       8.68804781      13.87340248  T        0
Si       8.74360366      10.56838836      17.77255179  T        0
Si       6.20666526      11.15470495      16.08017621  T        0
Si       1.44055065       6.37848454      15.70720436  T        0
Si       3.75178171       7.09039011      17.77068687  T        0
Si       5.41625844      13.42134089      14.03109952  T        0
Si       2.24117692      13.38895763      13.74236540  T        0
Si       8.88553264       7.41252452      17.64483458  T        0
Si       6.36534705       6.35290415      16.07487563  T        0
O       -0.09645108      10.95991188      16.29405529  T        0
O       -0.14319751      13.11696330      10.30539230  T        0
H       -0.89571882       8.42972886      10.66739018  F        0
H        7.84356088       6.72376138       7.45668423  F        0
H       11.77741500      11.82883679       4.45015372  F        0
H        3.46536401      10.58100877       5.26900439  F        0
H       16.04398914       8.93133647       8.84225548  F        0
H       16.97340651      10.80641058      12.75613404  F        0
H        7.69777211      18.11826613       7.44841170  F        0
H        8.50665683      10.58475679       4.91774357  F        0
H       12.20788617       8.97653229       6.55602501  F        0
H        4.51576461       6.77574371       7.71911054  F        0
H       14.56690736       6.77574372      12.16034191  F        0
H       10.76020324      17.16956735       9.31164421  F        0
H        6.74596320      16.92620537      10.74076342  F        0
H       15.75661379      12.42699387       9.00459924  F        0
H       14.91456245      13.24933472       6.30897701  F        0
H       12.17714149      15.71306863       6.40017283  F        0
H        4.05997682      15.72757570       9.28699687  F        0
H       14.11111957      15.72757569      10.59245558  F        0
H       12.25872463      13.00694285      19.04928406  F        0
H       12.34314048       9.29328245      18.81996388  F        0
H        4.03183819      10.81847925      20.22438289  F        0
H       13.65226955       8.06005012      15.57301841  F        0
H       15.58095515      11.20568437      16.50370227  F        0
H        7.89439933      10.75417195      19.94994328  F        0
H       -0.70903753       7.30425969      15.93812250  F        0
H       11.09748793       6.69447189      17.27920164  F        0
H        1.56411620       4.01919395      15.42714761  F        0
H        4.18307623       6.74908279      19.95766819  F        0
H        5.67587981      15.71242072      13.88688066  F        0
H        2.12599875      15.71306863      13.47931132  F        0
H        8.00892554       6.80873427      19.65039775  F        0
H        5.99116592       4.00312854      15.91351272  F        0
H       -0.90389482      10.88061926      15.75378840  F        0
H       -1.04605969      13.03623234      10.65268580  F        0
Fe       9.92550386      11.13356815      10.89963770  T        0
Fe       7.40709833      10.78662869      12.98166169  T        1
O        9.14886728      11.05534314      12.53129053  T        2
