141
Lattice="19.123 0.0 0.0 0.0 14.277 0.0 0.0 0.0 7.5465" Properties=species:S:1:pos:R:3:move_mask:L:1:tags:I:1 i=128 E=-2603.9155142701 regions="_JSON [\"Active\"]" n_terminators=34 energy=-944.6395803000577 pbc="F F F"
O        6.14041224       1.10900936       1.51115994  T        0
O       15.64439247       8.43148309       5.76139249  T        0
O       12.89020848       1.11227054       1.60855173  T        0
O        3.35600176       8.45852698       5.88766988  T        0
O        6.13957786      13.15879954       1.52168817  T        0
O       15.67510882       5.75168172       5.83170899  T        0
O       13.22921936      13.18359130       1.33697975  T        0
O        3.35006245       5.76996751       5.93499301  T        0
O       13.33794143      13.21124900       6.23091584  T        0
O        3.54010860       5.79769224       1.67439931  T        0
O        5.90960868      13.18522928       6.18535867  T        0
O       15.52126882       5.75394120       1.78077034  T        0
O       13.02471329       1.09329694       6.07003362  T        0
O        3.53653559       8.47640153       1.70389159  T        0
O        5.99226154       1.09315683       6.14504684  T        0
O       15.53617109       8.42783509       1.80180086  T        0
O        7.29050126       3.36260862       2.48912879  T        0
O       17.24627010      10.52807445       6.23989961  T        0
O       11.83077614       3.47078475       2.41103163  T        0
O        1.94472535      10.75516300       6.11760664  T        0
O        7.24792548      10.88513094       2.51601729  T        0
O       17.16630572       3.50663609       6.12080442  T        0
O       12.03591733      11.00652337       2.48498405  T        0
O        2.01004845       3.41949527       6.06401814  T        0
O       12.01495289      10.95356002       5.36491480  T        0
O        2.02504920       3.54786721       1.41350542  T        0
O        7.19078788      10.99426699       5.19547121  T        0
O       17.11256090       3.58197045       1.40146224  T        0
O       11.93982867       3.37555687       5.07059014  T        0
O        2.00022038      10.70550619       1.41068664  T        0
O        7.29046163       3.27994853       5.18752502  T        0
O       17.20497640      10.46912256       1.26231835  T        0
O        6.69568439       3.20236051      -0.04388998  T        0
O       16.28821118      10.06871975       3.75480831  T        0
O       12.42679552       3.20011234      -0.04822251  T        0
O        3.02476233      10.09906958       3.77674982  T        0
O        6.66980919      11.05998510      -0.03379059  T        0
O       16.07057145       4.07242610       3.77828908  T        0
O       12.67447722      10.93677864      -0.03916575  T        0
O        3.05666098       4.18618686       3.76313119  T        0
O        4.69157643       3.37320038       1.81857919  T        0
O       14.64756894      10.93028198       5.66053254  T        0
O       14.45277207       3.29337565       1.80106584  T        0
O        4.62097137      10.82328535       5.78195858  T        0
O        4.66073813      10.91696906       1.82352499  T        0
O       14.50249427       3.33693694       5.80609854  T        0
O       14.62005948      10.95666315       1.84268159  T        0
O        4.69795022       3.45756753       5.71563482  T        0
O       11.48413386       8.45509295       3.94600556  T        0
O        7.69156108       8.60905491       4.00748889  T        0
O       11.44482150       5.74853663       3.88475545  T        0
O        7.71715588       5.65327912       3.96186859  T        0
O        9.52282838      10.33438310       4.03189019  T        0
O        9.58769273       3.95512747       3.95489625  T        0
O       13.45648646       7.02282674       5.10016948  T        0
O        5.54693901       7.08117220       5.14077406  T        0
O        5.80577313       7.13227437       2.32205645  T        0
O       13.28462427       7.08632521       2.42063228  T        0
O       14.10237224       7.08319474      -0.09164291  T        0
O        5.05135388       7.15595925      -0.12794129  T        0
Si       6.14962485       2.76019948       1.44033333  T        0
Si      15.94630609      10.00396614       5.36165168  T        0
Si      12.95868770       2.75273815       1.43532813  T        0
Si       3.24045008      10.02268837       5.40451746  T        0
Si       6.13780611      11.50455258       1.45828704  T        0
Si      15.84955196       4.18001196       5.39860447  T        0
Si      13.13199518      11.52782577       1.42727155  T        0
Si       3.27923991       4.22582788       5.38905446  T        0
Si      13.23840339      11.55627065       6.22641617  T        0
Si       3.32946993       4.24500479       2.14636288  T        0
Si       6.01776033      11.53546848       6.21788719  T        0
Si      15.78716568       4.18469366       2.16766063  T        0
Si      13.02456222       2.74130325       6.13531152  T        0
Si       3.31115123      10.03420647       2.15993555  T        0
Si       6.07668667       2.74111768       6.19143525  T        0
Si      15.89779818       9.99881764       2.15580900  T        0
Al      11.35284540      10.31689242       3.89123286  T        0
Si       7.85972925      10.26268046       3.88973309  T        0
Si      11.25948381       4.07983533       3.78600504  T        0
Si       7.87227682       4.01127602       3.84847487  T        0
Si      14.76516294       7.09517908       6.09044973  T        0
Si       4.29465686       7.11811789       6.12764888  T        0
Si       4.47747800       7.14257433       1.41902913  T        0
Si      14.63951080       7.10544344       1.46613276  T        0
Si      12.45479305       7.12655676       3.82613908  T        0
Al       6.63543659       7.14416349       3.82646090  T        0
O        6.23018027       1.26598677       9.78035808  T        0
O        6.22636737      13.01694993       9.80668958  T        0
O       12.96921375      12.98891159       9.89625664  T        0
O        6.87065157       3.86572327      10.30614039  T        0
O        6.85767009      10.42027974      10.33731266  T        0
O       11.74869849      10.62289525       9.92860671  T        0
O        6.44107815       3.08295770       7.75088029  T        0
O       12.43857636       3.20846438       7.59252098  T        0
O        6.39701857      11.19594505       7.77670634  T        0
O       13.12881331      11.19744680       7.81517764  T        0
O        4.39347104       3.13667504       9.52117728  T        0
O        4.38279011      11.15392876       9.58674288  T        0
O       14.49792535      10.78090662      10.09956702  T        0
O       14.15374627       7.11206525       7.61718126  T        0
O        4.97614300       7.14132767       7.63157057  T        0
Si       6.01425008       2.84424021       9.33759779  T        0
Si       6.00057742      11.43954973       9.36654393  T        0
Si      13.11011586      11.40785746       9.43074214  T        0
H        5.61083456       0.52083913       2.07985367  F        0
H       13.50938118       0.51971906       2.07492992  F        0
H        5.61112307      13.75835362       2.07975607  F        0
H       13.50958039      13.75682243       2.07498241  F        0
H       13.51084140      13.75504172       5.44776650  F        0
H        5.62495998      13.75277707       5.44935724  F        0
H       13.50975252       0.52161770       5.44778410  F        0
H        5.62509051       0.52255101       5.44942550  F        0
H       17.28974254      11.12548174       7.01862795  F        0
H        1.83343022      11.12554006       7.01950242  F        0
H       17.28979000       3.14560285       7.02339196  F        0
H        1.81954193       3.15353441       6.98813474  F        0
H        1.83183800       3.14857954       0.53722786  F        0
H       17.29134854       3.14797220       0.53999843  F        0
H        1.83154049      11.12909684       0.54034962  F        0
H       17.29120144      11.12876736       0.54010345  F        0
H        6.35952436       2.97904956      -0.93427223  F        0
H       12.76076393       2.97683097      -0.93375646  F        0
H        6.36236324      11.29726414      -0.93275871  F        0
H       12.76174962      11.29928001      -0.93393629  F        0
H       14.60982961       7.13673871      -0.92783774  F        0
H        4.51175007       7.13509558      -0.92932085  F        0
H        5.61083456       0.52083913       9.62635367  F        0
H        5.61112307      13.75835362       9.62625607  F        0
H       13.50958039      13.75682243       9.62148241  F        0
H        7.72835374       3.98992704      10.77074871  F        0
H        7.72879001      10.28772525      10.77169866  F        0
H       11.39439525      10.28733182      10.77116771  F        0
H       12.76321398       2.97604733       8.47995589  F        0
H        3.92366420       3.98179322       9.62196525  F        0
H        3.92251131      10.29939702       9.62769700  F        0
H       15.20026252      10.29732969       9.62683702  F        0
H       14.61405599       7.13800201       8.47661577  F        0
H        4.50898861       7.14016697       8.47499567  F        0
Fe       9.48145510       5.84706058       5.06631432  T        1
Fe       9.59772461       8.48231588       5.00010897  T        2
O        9.65562545       7.16516959       6.27566862  T        3
