135
Lattice="19.123 0.0 0.0 0.0 14.277 0.0 0.0 0.0 7.5465" Properties=species:S:1:pos:R:3:move_mask:L:1:tags:I:1 i=128 E=-2603.9155142701 regions="_JSON [\"Active\"]" n_terminators=32 energy=-907.5712183785379 pbc="F F F"
O        6.06364490       1.12221488       1.45855154  T        0
O       15.78942700       8.46063274       5.78042153  T        0
O       13.31723781       1.10380588       1.31872052  T        0
O        3.54452449       8.44988017       5.81170301  T        0
O        6.25564851      13.04136770       1.96229529  T        0
O       15.85326813       5.78076644       5.86938459  T        0
O       12.84278047      13.08831408       1.80195458  T        0
O        3.35852667       5.78730991       5.82852026  T        0
O       13.36528756      13.19924636       6.23309142  T        0
O        3.39987866       5.79077253       1.71405750  T        0
O        6.02575539      13.15340253       6.10682649  T        0
O       15.54036127       5.88150650       1.93155895  T        0
O       13.36156500       1.13104249       6.19451602  T        0
O        3.41696872       8.48400954       1.72561768  T        0
O        6.17213262       1.30603242       5.26082871  T        0
O       15.63528332       8.56496523       1.75771694  T        0
O        7.16045761       3.40627404       2.52509118  T        0
O       17.18092460      10.75353952       6.12023890  T        0
O       11.99996679       3.28020478       2.32816590  T        0
O        1.91014022      10.55076990       6.22967106  T        0
O        7.17221376      10.62977780       2.31453143  T        0
O       17.25000673       3.48106859       6.10870439  T        0
O       11.90375517      10.53553533       2.29548564  T        0
O        1.99500411       3.44448827       6.06983590  T        0
O       11.97083974      11.18417058       5.04475398  T        0
O        1.95837271       3.51708647       1.43744174  T        0
O        7.06353889      10.87081901       4.98984849  T        0
O       17.14170288       3.92205175       1.12474509  T        0
O       11.94913570       3.27012156       5.23099988  T        0
O        1.90232905      10.69034176       1.41481824  T        0
O        7.28313295       3.64513849       5.19164908  T        0
O       17.16765280      10.78383283       1.44817497  T        0
O        6.69252368       3.21775000      -0.04683640  T        0
O       16.06096759      10.23228819       3.79278132  T        0
O       13.20148472       3.33197236      -0.14395782  T        0
O        2.92539245      10.08891010       3.80688812  T        0
O        6.24082096      11.29022824      -0.13005974  T        0
O       16.43418412       4.21590565       3.74631310  T        0
O       12.45090098      11.06339820      -0.04822235  T        0
O        3.09862794       4.09290671       3.77127854  T        0
O        4.63047656       3.40358157       1.70440323  T        0
O       14.48169463      10.78538241       5.88487835  T        0
O       14.64078884       3.34157504       2.00881024  T        0
O        4.53340553      10.94433449       5.78717085  T        0
O        4.54321002      10.93490573       1.86429824  T        0
O       14.58378380       3.44951245       5.49287938  T        0
O       14.51471019      10.99194255       1.72661297  T        0
O        4.68647863       3.49004051       5.88208050  T        0
O       11.64377361       8.45472602       3.92715134  T        0
O        7.43459908       8.47681923       3.84363702  T        0
O       11.63975103       5.80748460       3.73011124  T        0
O        7.62356257       5.85763938       3.61982142  T        0
O        9.40291822      10.26479960       3.80031368  T        0
O        9.51644539       4.21646871       3.62996093  T        0
O       13.69134697       7.02723344       4.99336877  T        0
O        5.66090951       6.92192268       5.12194186  T        0
O        5.59367280       7.11342344       2.45031869  T        0
O       13.32029570       7.36946364       2.28762026  T        0
O       14.45042925       7.13851769      -0.15099539  T        0
O        4.95564081       7.14749016      -0.06357767  T        0
Si       6.10875923       2.77020591       1.42642087  T        0
Si      15.85918444      10.06348491       5.41848815  T        0
Si      13.22552551       2.76007545       1.41002759  T        0
Si       3.24281339      10.01914417       5.41716170  T        0
Si       6.04326189      11.47366637       1.48900787  T        0
Si      16.00575811       4.22706095       5.33246779  T        0
Si      12.97765337      11.47646469       1.46640371  T        0
Si       3.28990614       4.20453220       5.39456533  T        0
Si      13.06007270      11.57066379       6.16066710  T        0
Si       3.27761427       4.20668172       2.14389860  T        0
Si       6.04524252      11.50097902       6.10017265  T        0
Si      15.93621122       4.30142870       2.18880683  T        0
Si      13.21736355       2.78548547       6.12086134  T        0
Si       3.20994189      10.05123096       2.19199740  T        0
Si       6.14582516       2.77300696       6.02595048  T        0
Si      15.84348152      10.13677226       2.18152849  T        0
Al      11.13655088      10.18736877       3.93095305  T        0
Si       7.80175438      10.09434257       3.74248649  T        0
Al      11.35485018       4.00677675       3.77643223  T        0
Si       7.87255060       4.18329537       3.76633097  T        0
Si      14.92135742       7.10522180       6.08625812  T        0
Si       4.35423550       7.06331568       6.10647356  T        0
Si       4.30353316       7.13556053       1.44768937  T        0
Si      14.76923429       7.21748066       1.44553999  T        0
Si      12.59564299       7.13569753       3.81651634  T        0
Si       6.53591940       7.13375319       3.76891372  T        0
O        6.57830902       2.58268608       7.60578657  T        0
O       13.18685029       3.33223724       7.67994107  T        0
O        6.58455800      11.00300641       7.57753124  T        0
O       12.41741025      11.09943238       7.59940623  T        0
O       14.22757703       7.16059918       7.57796138  T        0
O        4.97716212       7.00465350       7.63127203  T        0
O       15.87300644       8.40136735      -2.08642738  T        0
O       15.48159678       5.80077959      -2.35616652  T        0
O        6.25344039      13.01315961      -2.23829032  T        0
O        7.22323680      10.47617618      -2.41789776  T        0
O        4.50545085      11.06471405      -2.23367443  T        0
O       13.33596235       7.51616281      -2.46611796  T        0
Si       6.05554368      11.43896680      -1.75927184  T        0
Si      14.79452088       7.17658190      -1.76481763  T        0
H        5.61083456       0.52083913       2.07985367  F        0
H       13.50938118       0.51971906       2.07492992  F        0
H        5.61112307      13.75835362       2.07975607  F        0
H       13.50958039      13.75682243       2.07498241  F        0
H       13.51084140      13.75504172       5.44776650  F        0
H        5.62495998      13.75277707       5.44935724  F        0
H       13.50975252       0.52161770       5.44778410  F        0
H        5.62509051       0.52255101       5.44942550  F        0
H       17.28974254      11.12548174       7.01862795  F        0
H        1.83343022      11.12554006       7.01950242  F        0
H       17.28979000       3.14560285       7.02339196  F        0
H        1.81954193       3.15353441       6.98813474  F        0
H        1.83183800       3.14857954       0.53722786  F        0
H       17.29134854       3.14797220       0.53999843  F        0
H        1.83154049      11.12909684       0.54034962  F        0
H       17.29120144      11.12876736       0.54010345  F        0
H        6.35952436       2.97904956      -0.93427223  F        0
H       12.76076393       2.97683097      -0.93375646  F        0
H       12.76174962      11.29928001      -0.93393629  F        0
H        4.51175007       7.13509558      -0.92932085  F        0
H        6.35949513       2.97597070       8.47938261  F        0
H       12.76321398       2.97604733       8.47995589  F        0
H        6.35946036      11.30224636       8.48133548  F        0
H       12.76333233      11.30075111       8.47967776  F        0
H       14.61405599       7.13800201       8.47661577  F        0
H        4.50898861       7.14016697       8.47499567  F        0
H       15.75671561       9.37610020      -2.09181162  F        0
H       15.75636517       4.89339805      -2.09021006  F        0
H        5.62495998      13.75277707      -2.09714276  F        0
H        7.72914317      10.28615024      -3.24155184  F        0
H        3.92376286      10.29502607      -2.09159850  F        0
H       12.88191441       7.13773895      -3.23957932  F        0
Fe      11.47785452       8.60047261       1.65752143  T        0
Fe       9.69793974       6.22775849       2.80882516  T        1
O       10.14395528       7.37610634       1.43874299  T        2
