139
Lattice="19.123 0.0 0.0 0.0 14.277 0.0 0.0 0.0 7.5465" Properties=species:S:1:pos:R:3:move_mask:L:1:tags:I:1 i=128 E=-2603.9155142701 regions="_JSON [\"Active\"]" n_terminators=34 energy=-932.7958744487902 pbc="F F F"
O        5.96419981       1.11621115       1.40087997  T        0
O       15.56965482       8.49097566       5.77712589  T        0
O       12.84628652       1.21945305       1.95510166  T        0
O        3.55082332       8.50375416       5.76995838  T        0
O        6.16025554      13.14305371       1.55641525  T        0
O       15.59262012       5.81351898       5.76127032  T        0
O       13.04795608      13.15467962       1.45657508  T        0
O        3.50061967       5.82527988       5.76751758  T        0
O       13.05009116      13.16116025       6.07424002  T        0
O        3.49712259       5.83056648       1.76542911  T        0
O        6.16087372      13.14126448       5.99035570  T        0
O       15.58609299       5.79469695       1.81735297  T        0
O       13.04975526       1.12382258       6.06287787  T        0
O        3.54836760       8.50948683       1.78046363  T        0
O        5.97121426       1.11744919       6.13193289  T        0
O       15.55122206       8.48006417       1.77215243  T        0
O        7.07577730       3.47145204       2.32058387  T        0
O       17.20740755      10.59134201       6.19800576  T        0
O       11.96222863       3.64677243       2.32089746  T        0
O        1.91638911      10.61702140       6.18462473  T        0
O        7.08101651      10.72644726       2.46314849  T        0
O       17.19937391       3.68963775       6.21378780  T        0
O       11.99694359      10.77033929       2.39868767  T        0
O        1.86495275       3.75859533       6.22019082  T        0
O       11.99729887      10.77464450       5.14258693  T        0
O        1.86702860       3.76421823       1.29763661  T        0
O        7.08437578      10.72316691       5.08751661  T        0
O       17.20126066       3.68494159       1.35664790  T        0
O       12.02916527       3.44059390       4.99529985  T        0
O        1.91245982      10.62664474       1.37892347  T        0
O        7.08299609       3.46837002       5.20261678  T        0
O       17.20377829      10.56251666       1.33823108  T        0
O        6.12711174       3.12292489      -0.20176449  T        0
O       16.15043353      10.14007218       3.77249288  T        0
O       12.85036963       2.97784080      -0.13316256  T        0
O        2.99741525      10.18761766       3.77875015  T        0
O        6.61553055      11.01768565      -0.03656080  T        0
O       16.18770941       4.11660306       3.79682904  T        0
O       12.56200459      10.95876233      -0.05496985  T        0
O        2.81914453       4.21174369       3.76348276  T        0
O        4.46137873       3.30857409       1.85758821  T        0
O       14.58950556      11.00334884       5.79092318  T        0
O       14.58389770       3.28984215       1.84099865  T        0
O        4.53654933      11.01160585       5.81647568  T        0
O        4.53304561      11.01737159       1.73948427  T        0
O       14.56422880       3.32953682       5.79014564  T        0
O       14.59208102      11.00266298       1.75948759  T        0
O        4.46651283       3.30666921       5.66567423  T        0
O       11.24050957       8.25778853       3.77501463  T        0
O        7.70301971       8.43694546       3.77328808  T        0
O       11.38183207       5.79088898       3.80373842  T        0
O        7.83048976       5.95446147       3.76936031  T        0
O        9.42791562      10.34725964       3.77129357  T        0
O        9.64335023       3.87309450       3.74356213  T        0
O       13.35562670       7.13085053       5.11771056  T        0
O        5.74589936       7.11974836       5.11698001  T        0
O        5.74094709       7.12265028       2.43122279  T        0
O       13.34239339       7.10791829       2.43139111  T        0
O       14.13620210       7.04540155      -0.07717318  T        0
O        4.98971238       7.15508834      -0.07795295  T        0
Si       5.95162164       2.77502402       1.39388575  T        0
Si      15.85896586      10.07027181       5.39146494  T        0
Si      13.07374914       2.78329915       1.47748879  T        0
Si       3.26079559      10.07590796       5.39625243  T        0
Si       6.06958473      11.49534427       1.43727637  T        0
Si      15.87045319       4.23540078       5.40377730  T        0
Si      13.04663478      11.48821094       1.42868665  T        0
Si       3.18548332       4.25723535       5.36234778  T        0
Si      13.04418885      11.49508547       6.11379497  T        0
Si       3.18301543       4.26090116       2.16441053  T        0
Si       6.07314811      11.49380974       6.11225721  T        0
Si      15.88128781       4.22235749       2.18897852  T        0
Si      13.05323990       2.77551332       6.09514994  T        0
Si       3.25850500      10.08020078       2.16072422  T        0
Si       5.95790818       2.77612235       6.13297583  T        0
Si      15.85509151      10.05997376       2.15526129  T        0
Al      11.16967886      10.14754592       3.77215280  T        0
Si       7.84958129      10.13789353       3.77355935  T        0
Si      11.22994499       4.09186530       3.72275807  T        0
Al       7.88328823       4.05451009       3.75950117  T        0
Si      14.69741843       7.14784385       6.08683979  T        0
Si       4.40722315       7.14270321       6.08353550  T        0
Si       4.40504425       7.14976109       1.46095703  T        0
Si      14.69198939       7.12599618       1.47297653  T        0
Si      12.43846819       7.09771843       3.78041073  T        0
Si       6.65070086       7.13301275       3.77235062  T        0
O        6.22544453       1.27245756       9.77502022  T        0
O        7.26008292       3.77508061       9.93948777  T        0
O        6.13212392       3.12693326       7.72781172  T        0
O       12.50321392       3.24833322       7.57582496  T        0
O        6.62208096      11.02381805       7.58753105  T        0
O       12.54418308      10.98124631       7.59725820  T        0
O        4.52212250       3.27260328       9.91854147  T        0
O       14.12479380       7.11028300       7.63058673  T        0
O        4.98779186       7.13892372       7.62390379  T        0
Si       6.02747761       2.85933413       9.33768148  T        0
O       12.87451057       1.25617405      -2.23682355  T        0
O        6.23249785       1.27749468      -2.25523678  T        0
O       11.93934527       3.81409531      -2.44134933  T        0
O        7.25979973       3.78041329      -2.40989779  T        0
O       14.63858659       3.18507956      -2.19116492  T        0
O        4.52302881       3.27524470      -2.39666025  T        0
Si      13.07273036       2.83058250      -1.75989055  T        0
Si       6.02644054       2.86119962      -1.81175584  T        0
H        5.61083456       0.52083913       2.07985367  F        0
H       13.50938118       0.51971906       2.07492992  F        0
H        5.61112307      13.75835362       2.07975607  F        0
H       13.50958039      13.75682243       2.07498241  F        0
H       13.51084140      13.75504172       5.44776650  F        0
H        5.62495998      13.75277707       5.44935724  F        0
H       13.50975252       0.52161770       5.44778410  F        0
H        5.62509051       0.52255101       5.44942550  F        0
H       17.28974254      11.12548174       7.01862795  F        0
H        1.83343022      11.12554006       7.01950242  F        0
H       17.28979000       3.14560285       7.02339196  F        0
H        1.81954193       3.15353441       6.98813474  F        0
H        1.83183800       3.14857954       0.53722786  F        0
H       17.29134854       3.14797220       0.53999843  F        0
H        1.83154049      11.12909684       0.54034962  F        0
H       17.29120144      11.12876736       0.54010345  F        0
H        6.36236324      11.29726414      -0.93275871  F        0
H       12.76174962      11.29928001      -0.93393629  F        0
H       14.60982961       7.13673871      -0.92783774  F        0
H        4.51175007       7.13509558      -0.92932085  F        0
H        5.61083456       0.52083913       9.62635367  F        0
H        7.72835374       3.98992704      10.77074871  F        0
H       12.76321398       2.97604733       8.47995589  F        0
H        6.35946036      11.30224636       8.48133548  F        0
H       12.76333233      11.30075111       8.47967776  F        0
H        3.92366420       3.98179322       9.62196525  F        0
H       14.61405599       7.13800201       8.47661577  F        0
H        4.50898861       7.14016697       8.47499567  F        0
H       13.50975252       0.52161770      -2.09871590  F        0
H        5.62509051       0.52255101      -2.09707450  F        0
H       11.39412799       3.98861071      -3.24188863  F        0
H        7.72584421       3.99139588      -3.24276680  F        0
H       15.19955093       3.97637223      -2.09238403  F        0
H        3.91490408       3.97370239      -2.09385012  F        0
Fe       9.54284903       7.10059287       3.77980416  T        1
