142
Lattice="19.123 0.0 0.0 0.0 14.277 0.0 0.0 0.0 7.5465" Properties=species:S:1:pos:R:3:move_mask:L:1:tags:I:1 i=128 E=-2603.9155142701 regions="_JSON [\"Active\"]" n_terminators=34 energy=-949.1213333303755 pbc="F F F"
O       15.72230688       8.34210379       5.53784386  T        0
O       12.70270775       1.06327207       1.99954150  T        0
O       15.46619790       5.76278600       5.54043677  T        0
O       13.02814670      13.14434606       1.49732381  T        0
O       12.77089853      13.12296620       5.42471889  T        0
O       15.58155616       5.80699994       1.93773938  T        0
O       12.92706461       1.08852152       5.98712487  T        0
O       15.65286636       8.44929758       1.86405239  T        0
O       17.08985130      10.91498285       6.29371932  T        0
O       11.63700535       3.48479771       2.38801233  T        0
O       16.96372267       3.96105158       6.61004698  T        0
O       11.86700161      10.81891222       2.44015503  T        0
O       11.62213405      10.79080534       5.12118654  T        0
O       17.14064069       3.77919127       1.31173505  T        0
O       11.91157576       3.45215138       5.04817759  T        0
O       17.02802196      10.74458381       1.22545344  T        0
O       16.35200772      10.05607934       3.68692354  T        0
O       12.45476918       2.78323111      -0.07895036  T        0
O       16.09578980       3.74394003       3.99129017  T        0
O       12.71174894      11.16538833      -0.10890199  T        0
O       14.26006957      10.87105203       5.62254048  T        0
O       14.26368767       3.22709257       1.79633131  T        0
O       14.42508045       3.32281567       6.02524119  T        0
O       14.45433505      10.87981081       1.90545711  T        0
O       11.43366271       8.49136940       3.75332906  T        0
O       17.14603640       1.26879499       0.26273810  T        0
O       11.51881091       5.78697306       3.78734554  T        0
O       17.32915232      13.14943432      -0.04597857  T        0
O        9.48790025      10.37067848       3.46700749  T        0
O        9.51040192       3.95904765       4.04219968  T        0
O       13.29305286       7.24110537       5.19592336  T        0
O       13.37954840       7.20039828       2.49802375  T        0
O       14.30660776       7.12951992      -0.02751848  T        0
Al      15.81307691      10.17236801       5.39520095  T        0
Si      12.78319250       2.65760594       1.52964042  T        0
Si      15.74498474       4.14298750       5.50920713  T        0
Si      12.99427799      11.49788662       1.46747084  T        0
Si      12.83330145      11.54456266       5.95263566  T        0
Al      15.66961004       4.02865200       2.33477176  T        0
Si      12.90361480       2.73412605       6.13933848  T        0
Si      15.84988718      10.09080675       2.13436045  T        0
Si      11.09507688      10.10865972       3.72027745  T        0
Si      17.56202587       2.85380514      -0.00853979  T        0
Si      11.12563315       4.17583513       3.79578592  T        0
Si      17.57532783      11.50892382      -0.12968700  T        0
Si      14.70904737       7.11792489       6.01351376  T        0
Si      14.69286656       7.12543042       1.54409237  T        0
Si      12.39579360       7.16846469       3.81774757  T        0
O       19.21436205      11.32020186       8.00195566  T        0
O       22.90870983       5.77122531       1.91801920  T        0
O       22.53097670       8.40474080       2.16026567  T        0
O       21.51168050       3.53793403       1.28705078  T        0
O       21.95385917       4.04623928       3.79763855  T        0
O       24.04146037       3.31521306       2.32856892  T        0
O       20.96516240       1.17047266      -0.01012798  T        0
O       19.20231872       3.01624277      -0.12957184  T        0
O       19.18230976      11.25435084      -0.37754794  T        0
O       25.07590754       7.36148332       2.31297458  T        0
O       23.83455506       7.40529363      -0.00783715  T        0
Si      22.62723134       4.19116078       2.30240371  T        0
Si      20.83753189       2.81375704      -0.03602307  T        0
Si      23.57836827       7.24251621       1.60817678  T        0
O       22.53403016       8.39787172      -2.18204278  T        0
O       22.91636578       5.77961519      -1.94205144  T        0
O       21.60445296       3.50488067      -1.31394372  T        0
O       21.96357827       4.05832172      -3.81910379  T        0
O       24.11052581       3.37445577      -2.40028471  T        0
O       25.08371526       7.36805923      -2.32985699  T        0
Si      22.66959574       4.20080347      -2.34047119  T        0
Si      23.58656533       7.24628214      -1.62561378  T        0
O       12.82278890      13.07103431       9.74091569  T        0
O       15.73955960       5.86998393       9.72882425  T        0
O       15.51508313       8.47179995       9.69454929  T        0
O       11.52733558      10.73560105       9.90831813  T        0
O       16.80860877      10.74823740       8.90449854  T        0
O       16.18890633      10.48675439      11.39288255  T        0
O       12.29121424       3.09031199       7.63186888  T        0
O       12.53233436      11.46287006       7.57296896  T        0
O       14.21728216      10.76838466       9.54768380  T        0
O       17.31984505      13.19348812       7.80071504  T        0
O       13.21777748       6.97296183       9.87032565  T        0
O       14.47439154       7.12690080       7.62204412  T        0
Si      12.80274998      11.50602446       9.19305792  T        0
Si      15.67660470      10.10509703       9.87541742  T        0
Si      17.60251904      11.54880004       7.69295652  T        0
Si      14.74289540       7.09651945       9.24233303  T        0
O       15.51649046       8.47532710      -1.99936876  T        0
O       15.48436052       5.79310936      -2.05660665  T        0
O       12.81019753      13.07303424      -2.08337416  T        0
O       12.82181537       1.19553673      -2.25724426  T        0
O       16.76700950      10.81177332      -1.37130402  T        0
O       16.78516966       3.48525130      -1.31719016  T        0
O       11.52820488      10.76615881      -2.40261287  T        0
O       11.50686878       3.51096785      -2.39815632  T        0
O       16.36889460      10.26070369      -3.85743703  T        0
O       16.20972206       3.85408100      -3.82360765  T        0
O       14.24842648      10.79893516      -2.27604830  T        0
O       14.20860304       3.48360605      -2.01250562  T        0
O       13.14049353       7.18011162      -2.30499707  T        0
Si      15.70780430      10.06560461      -2.36369712  T        0
Si      15.66335278       4.17371811      -2.29789529  T        0
Si      12.85624687      11.45898481      -1.72238905  T        0
Si      12.78037678       2.75053145      -1.68227127  T        0
Si      14.64710444       7.13472322      -1.62938513  T        0
H       13.50938118       0.51971906       2.07492992  F        0
H       13.50958039      13.75682243       2.07498241  F        0
H       13.51084140      13.75504172       5.44776650  F        0
H       13.50975252       0.52161770       5.44778410  F        0
H       17.28979000       3.14560285       7.02339196  F        0
H       16.56036088       0.51548555      -0.00076213  F        0
H       16.56020813      13.76127004      -0.00066979  F        0
H        8.59739021      10.07362933       3.76217937  F        0
H        8.59637561       4.20354031       3.76204115  F        0
H       20.08739461      11.34211663       7.54749186  F        0
H       22.48926427       9.38386245       2.08012257  F        0
H       22.31579804       4.15795734       4.69750931  F        0
H       24.75935035       3.15857028       1.68481677  F        0
H       21.68544240       0.51556882       0.00084209  F        0
H       20.08739461      11.34211663       0.00099186  F        0
H       25.36301829       7.13882896       3.22257540  F        0
H       22.48911374       9.37433505      -2.09115109  F        0
H       22.32326696       4.16316078      -4.71757657  F        0
H       24.75385446       3.15950316      -1.69868971  F        0
H       25.36244212       7.13797332      -3.24031999  F        0
H       13.50958039      13.75682243       9.62148241  F        0
H       15.75706449       4.89440344       9.62693705  F        0
H       11.39439525      10.28733182      10.77116771  F        0
H       15.92688062      10.11457984      12.25007275  F        0
H       12.76321398       2.97604733       8.47995589  F        0
H       16.56020813      13.76127004       7.54583021  F        0
H       12.88235039       7.13795337      10.76981689  F        0
H       13.51084140      13.75504172      -2.09873350  F        0
H       13.50975252       0.52161770      -2.09871590  F        0
H       11.39521725      10.28762784      -3.24237523  F        0
H       11.39412799       3.98861071      -3.24188863  F        0
H       15.92569105      10.11584057      -4.70878458  F        0
H       15.92661844       4.15901570      -4.70770176  F        0
H       12.88191441       7.13773895      -3.23957932  F        0
Fe      17.68246529       5.85013374       1.51872740  T        0
Fe      16.86172295       7.90295407       3.84892368  T        1
O       18.02810735       6.46958617      -0.00469987  T        2
O       18.05265430       6.75424998       3.07227921  T        3
