138
Lattice="24.397 0.0 0.0 0.0 24.397 0.0 0.0 0.0 24.397" Properties=species:S:1:pos:R:3:move_mask:L:1:tags:I:1 i=41 E=-6943.8331748197 regions="_JSON [\"Active\"]" n_terminators=32 energy=-931.7061392750408 pbc="F F F"
O       21.68466894       2.56383118       0.07351154  T        0
O       21.87067058       5.98545676       3.64333950  T        0
O       15.68607794       9.80476352       6.23553635  T        0
O       20.82991080      12.34682973       3.63036584  T        0
O       21.00563657       3.53741723      12.47235874  T        0
O       15.56506970       6.23389515       9.67801331  T        0
O       21.83977239      -0.04778261       2.56265131  T        0
O       18.28195968       9.81037204       3.56448045  T        0
O       21.80890506       3.51992446       6.04094556  T        0
O       18.39286115       3.31635220       9.64734299  T        0
O       23.74491680       1.68856103       1.84123300  T        0
O       22.68220019       5.22907707       7.96844061  T        0
O       22.82281376       8.05675228       5.49377652  T        0
O       17.68932469      10.49975720       7.92481266  T        0
O       20.15363686      10.49561539       5.38010499  T        0
O       23.71410216       4.18772045       4.27367560  T        0
O       18.87070594      14.14737070       4.26216929  T        0
O       16.28062780      11.47575227       4.17961663  T        0
O       17.61203805       7.83482956      10.58011122  T        0
O       20.09352734       5.21850466      10.57261467  T        0
O       20.85162819       5.88338869       6.05317722  T        0
O       18.17300809       8.81475604       6.03047353  T        0
O       22.02802895      12.34650686       6.07387284  T        0
O       20.97044958       0.00636581       0.02440396  T        0
O       24.32777241       2.61949696       6.35225971  T        0
O       24.37699562       6.21903342       2.64122496  T        0
O       18.29738271      12.28266027       2.59752905  T        0
O       14.60213335      12.28316917       6.14117424  T        0
O       18.14740448       5.92354987       8.90474538  T        0
O       21.98730951       6.09223900      12.30324104  T        0
O       22.67521081       4.30096378       1.79941246  T        0
O       13.81154879      10.41308234       4.42310099  T        0
O       22.64879278       4.36971754      10.50041986  T        0
O       20.07247859       8.02568430       4.37812905  T        0
O       16.61593458       8.00326472       8.04298879  T        0
O       22.67683605      10.50404294       4.37912007  T        0
O       20.20493664      14.07623773       1.82882837  T        0
O       16.57905643      10.41108735       1.68184637  T        0
O       22.78192487       1.68000396       4.36040650  T        0
O       20.14838721       4.31198419       8.04905789  T        0
Al      23.35166382       2.98507780       0.77109492  T        0
Si      23.61931785       4.86014071       9.28141998  T        0
Al      21.45886872       7.17750442       4.93140723  T        0
Si      17.00912416       9.26895342       7.05929075  T        0
Si      21.40454671      11.42477201       4.86476251  T        0
Si      23.20211742       0.76363550       3.04194065  T        0
Si      19.18113554       9.28473980       4.82555916  T        0
Si      21.39708988       4.75597916       7.10849203  T        0
Si      23.67424147       9.29768965       4.88596785  T        0
Si      23.19418738       2.97939103       5.24629861  T        0
Si      17.33953676      11.01488920       3.00880125  T        0
Si      19.17746851       4.72430390       9.31018854  T        0
Si      15.12018201      10.99860837       5.24145365  T        0
Si      19.55565417      13.21868102       3.07562416  T        0
Si      23.19384218       5.20061317       3.08115973  T        0
Si      21.39777672       4.80057689      11.48395192  T        0
Si      16.97714882       7.00864239       9.29774624  T        0
O       24.63895918       3.66394461       8.81350273  T        0
O       24.55805856       8.73862179       3.60286058  T        0
O       26.33315564       6.72367662       4.23123674  T        0
O       26.30815598       4.24902766       6.73489759  T        0
O       24.70523866       9.93450740       6.00737616  T        0
O       24.43767490       6.18758371       9.79003231  T        0
O       26.22779674       8.00798212       1.77106109  T        0
O       26.28473709       1.80786852       8.05227919  T        0
Si      25.39641783       7.44211972       3.07379970  T        0
Si      25.41638180       3.08408777       7.48820413  T        0
O       24.69220582       2.42025574      -2.81686411  T        0
O       26.24440917       1.79790042      -0.68445173  T        0
O       24.35564896      -0.15311137      -3.59436946  T        0
O       26.50782721       4.18341079      -2.05868567  T        0
Si      25.47624546       3.02324116      -1.48999424  T        0
O       24.61482535      -2.72001015       2.42630844  T        0
O       26.29950519      -0.65197304       1.85175541  T        0
O       24.44848707      -3.70631353      -0.08233220  T        0
O       26.33253741      -1.99029778       4.26774379  T        0
Si      25.41871676      -1.41570940       3.02073100  T        0
O       17.99704303       2.45314746      -3.42837387  T        0
O       20.99682205       2.53067402      -6.37762159  T        0
O       19.98842435       0.95261796      -4.46745760  T        0
O       22.68014662       0.98045207      -1.79915670  T        0
O       24.43415068       3.59405485      -0.40068088  T        0
O       18.35325861      -0.12430234      -2.59833737  T        0
O       21.89490154      -0.05518734      -6.11507688  T        0
O       20.07022208       1.67300063      -1.88292653  T        0
O       22.58912439       1.68786451      -4.35671820  T        0
Si      19.08524078       1.24233400      -3.13176131  T        0
Si      21.34089419       1.28277749      -5.34404678  T        0
Si      23.60106166       1.23910636      -3.14462323  T        0
Si      21.33569060       1.27570915      -0.92903316  T        0
O       18.00563829      -3.43181169       2.44988568  T        0
O       21.00156968      -6.41253101       2.52127990  T        0
O       22.65076990      -1.89423308       0.80943796  T        0
O       20.00485876      -4.47882831       0.96595605  T        0
O       24.34993367      -0.29150295       3.53969124  T        0
O       18.36779969      -2.62750300      -0.13298317  T        0
O       21.90874478      -6.12313444      -0.05256120  T        0
O       20.09781995      -1.89918029       1.67599943  T        0
O       22.61178849      -4.39160185       1.71328234  T        0
Si      21.38526732      -0.96964718       1.27645531  T        0
Si      21.35310159      -5.36082467       1.29086039  T        0
Si      23.59493363      -3.17455039       1.22000944  T        0
Si      19.10246754      -3.13758044       1.24473206  T        0
H       20.10951519       3.23923103      12.72546793  F        0
H       15.43757911       5.57209275      10.38640946  F        0
H       17.77043311       3.23924387      10.38640412  F        0
H       17.22544067      10.92750153       8.65411313  F        0
H       19.36965547      14.75328399       4.82834093  F        0
H       17.22544070       8.65411150      10.92750362  F        0
H       21.54216027      12.99764967       6.60187561  F        0
H       15.05290853      12.70105704       6.89848521  F        0
H       21.54216028       6.60187434      12.99765198  F        0
H       13.44269068      10.71000821       3.56560630  F        0
H       19.78591980      14.73191782       1.24430354  F        0
H       15.76397041      10.70999753       1.24433830  F        0
H       26.95194123       7.17131746       4.82834527  F        0
H       26.95194124       4.82834452       7.17131883  F        0
H       25.19630608       9.34383456       6.60185911  F        0
H       25.19630604       6.60185806       9.34383627  F        0
H       26.93058105       7.58756876       1.24433203  F        0
H       26.93058086       1.24433163       7.58757011  F        0
H       26.95192867       1.27083937      -1.07240246  F        0
H       25.19622735      -0.50276655      -3.24494277  F        0
H       26.93057835       4.85486043      -1.48866112  F        0
H       26.95192866      -1.07240650       1.27083969  F        0
H       25.19622853      -3.24494603      -0.50276481  F        0
H       26.93057847      -1.48866524       4.85486109  F        0
H       17.77043356       2.85994955      -4.28747201  F        0
H       20.10952426       2.85994950      -6.62656333  F        0
H       17.49833355      -0.50278089      -2.85477948  F        0
H       21.54221652      -0.50278066      -6.89866328  F        0
H       17.77043326      -4.28747560       2.85995000  F        0
H       20.10952426      -6.62656664       2.85995001  F        0
H       17.49833238      -2.85478383      -0.50277915  F        0
H       21.54221602      -6.89866750      -0.50277915  F        0
Fe      20.75593481       3.38087050       1.63997408  T        0
Fe      20.41356056       4.61475019       4.43990639  T        1
O       19.68565098       3.66230796       3.07011109  T        2
