136
Lattice="19.123 0.0 0.0 0.0 14.277 0.0 0.0 0.0 7.5465" Properties=species:S:1:pos:R:3:move_mask:L:1:tags:I:1 i=128 E=-2603.9155142701 regions="_JSON [\"Active\"]" n_terminators=30 energy=-927.6202538898397 pbc="F F F"
O        5.89306141       1.13735213       1.87415992  T        0
O        3.47247588       8.74056647       5.49649846  T        0
O        6.28172131      13.18749525       1.66184623  T        0
O        3.18443161       5.83133979       5.84000878  T        0
O        3.47166782       5.98644269       1.87086472  T        0
O        6.33449383      13.21876295       5.85263974  T        0
O        3.64673356       8.62794483       2.07707138  T        0
O        5.93494843       1.29232975       5.65041929  T        0
O        7.62654227       3.39938620       2.46692170  T        0
O       11.70358758       3.24390826       2.53502354  T        0
O        2.08150743      11.05385143       6.07692933  T        0
O        7.20622202      10.77182687       2.46630037  T        0
O        2.00395067       3.40402223       6.21178805  T        0
O        2.32375890       3.60013893       1.24538889  T        0
O        7.38544339      10.84624931       5.11788735  T        0
O       12.21647193       3.98284275       5.16027479  T        0
O        2.00822659      10.52875835       1.28329063  T        0
O        7.21475233       3.63853940       5.08601560  T        0
O        6.37865618       3.08848916      -0.21425802  T        0
O        3.11714404      10.67289296       3.71466614  T        0
O        6.79523315      11.17357284      -0.06761725  T        0
O        2.85539216       4.19638788       3.78539909  T        0
O        4.91790552       3.84289995       2.27107137  T        0
O        4.75980175      11.06017728       5.78107493  T        0
O        4.65343238      11.05743646       1.57180154  T        0
O        4.67839630       3.65934930       5.58820637  T        0
O        1.92993380       1.31267165      -0.03759733  T        0
O        7.58460194       8.51651085       3.85491906  T        0
O       11.76072944       5.83859393       3.30037545  T        0
O        7.61622253       5.79065107       3.64249671  T        0
O       -0.02725728       3.24907765       0.01085372  T        0
O        9.59421005      10.34334227       3.57221660  T        0
O        9.74621299       4.16057596       4.03668867  T        0
O        3.66442582      -0.24105101       1.33820382  T        0
O        5.57058400       6.79040313       4.80136051  T        0
O        5.86934774       7.17259119       2.21744577  T        0
O        3.76394207      -0.14844702       6.27938190  T        0
O        4.68473394      -0.23556531       3.82499571  T        0
O        4.60094737       7.41600960      -0.10634637  T        0
Al       6.26549983       2.79151378       1.49727482  T        0
Si       3.35874925      10.32972504       5.31105439  T        0
Si       6.21011351      11.55384146       1.42402563  T        0
Si       3.08954971       4.30098081       5.41832104  T        0
Si       3.33371526       4.38446173       2.21773444  T        0
Si       6.27304601      11.58017251       6.09196853  T        0
Si       3.36355399      10.24036012       2.16548779  T        0
Si       6.08809253       2.85315414       6.04308781  T        0
Si       1.57881432       2.90900437      -0.06758314  T        0
Si       7.97483721      10.13931070       3.76751966  T        0
Si      11.38478980       4.29801128       3.76564722  T        0
Si       8.14219094       4.19272799       3.75716740  T        0
Si       5.06554851      -0.19279149       2.21458585  T        0
Al       4.20138399       7.25749895       5.99802091  T        0
Si       4.38444911       7.30694985       1.49769672  T        0
Si       5.13266589      -0.12987682       5.38490367  T        0
Si       2.79163371      -0.08658719      -0.04075548  T        0
Si       6.69932431       7.18726412       3.63875446  T        0
O        5.97926731       1.26660620       9.53655040  T        0
O        3.51466178       5.97964121       9.62965743  T        0
O        3.85386431       8.61367891       9.97943409  T        0
O        7.54141455       3.37618088      10.02861285  T        0
O        2.31352002       3.71472589       8.83720330  T        0
O        6.40046716       3.06381654       7.61833901  T        0
O        6.78563899      11.20006382       7.60883179  T        0
O        2.76435464       4.02853192      11.37953154  T        0
O        4.85586163       3.68618814       9.70786901  T        0
O        2.04084522       1.28521535       7.77104971  T        0
O       -0.07289259       3.01619602       7.95490528  T        0
O        3.87639873      -0.31494158       8.91906220  T        0
O        5.99580519       6.97519634       9.84957314  T        0
O        4.60184887      -0.16113088      11.39783603  T        0
O        4.69356287       7.39250579       7.64931251  T        0
Si       6.18202489       2.86662401       9.25747299  T        0
Si       3.37728609       4.37633266       9.89033876  T        0
Si       1.53713584       2.84064923       7.69990377  T        0
Si       5.20287547      -0.14207744       9.86085145  T        0
Si       4.48583351       7.26649437       9.23255321  T        0
Si       2.86290708      -0.12004301       7.65008812  T        0
O        3.46217681       8.44130821      -2.35973423  T        0
O        3.60634981       5.84674564      -2.02816999  T        0
O        6.02484476       1.13963394      -2.02577264  T        0
O        2.25337429       3.62291889      -1.37611070  T        0
O        7.45790260       3.18910852      -2.75136377  T        0
O        2.69512139       4.11890158      -3.88862663  T        0
O        4.80045166       3.49589823      -2.32767831  T        0
O        5.93862615       7.23295446      -2.31887493  T        0
O        3.75589782      -0.12223717      -1.36192871  T        0
O        4.53996216      -0.16957422      -3.88627705  T        0
Si       3.36693297       4.26286941      -2.39236836  T        0
Si       6.17771081       2.76606982      -1.78838223  T        0
Si       4.39727275       7.23757428      -1.71996790  T        0
Si       5.08619719      -0.16079679      -2.32461971  T        0
O        6.30922862      -1.33796246       9.59225000  T        0
O        1.68532615      -1.26778072       7.62456903  T        0
O        5.90030008      -1.57098103       1.91246772  T        0
O        6.21482031      -1.27304890       5.87455729  T        0
O        7.49796856      -3.73466485       2.30504713  T        0
O        6.25830733      -3.33060952      -0.02573533  T        0
O        4.88151574      -4.08410333       2.21548929  T        0
O        1.64402942      -1.27445844      -0.12242059  T        0
Si       6.11886085      -3.16109021       1.60207061  T        0
O        5.90581719      -1.54301092      -1.99013611  T        0
O        7.50800826      -3.70661097      -2.33054087  T        0
O        4.88088692      -4.06222825      -2.25293101  T        0
Si       6.11764488      -3.13687502      -1.65241744  T        0
H        5.61112307      13.75835362       2.07975607  F        0
H        5.62495998      13.75277707       5.44935724  F        0
H       12.44565577       3.15588527       1.90033815  F        0
H        1.83343022      11.12554006       7.01950242  F        0
H       12.44354748       3.15657450       5.63339447  F        0
H        1.83154049      11.12909684       0.54034962  F        0
H        6.36236324      11.29726414      -0.93275871  F        0
H       12.12599848       6.62134464       3.76259695  F        0
H       -0.96435880       2.93479999       0.00082830  F        0
H       10.52611047      10.07370688       3.76203277  F        0
H        3.36626427       9.38386245       9.62662257  F        0
H        7.72835374       3.98992704      10.77074871  F        0
H        6.35946036      11.30224636       8.48133548  F        0
H        3.19279804       4.15795734      12.24400931  F        0
H       -0.96435880       2.93479999       7.54732830  F        0
H        6.24001829       7.13882896      10.76907540  F        0
H        5.05805767      -0.00063749      12.24294516  F        0
H        3.36611374       9.37433505      -2.09115109  F        0
H        7.72584421       3.99139588      -3.24276680  F        0
H        3.20026696       4.16316078      -4.71757657  F        0
H        6.23944212       7.13797332      -3.24031999  F        0
H        5.04790665       0.00049463      -4.70488864  F        0
H        6.19238160      -2.23894396       9.23402325  F        0
H        1.75289949      -2.23551612       7.54748495  F        0
H        6.19792725      -2.24787639       5.84372079  F        0
H        7.72879001      -3.98927475       3.22519866  F        0
H        3.92251131      -3.97760298       2.08119700  F        0
H        1.75289949      -2.23551612       0.00098495  F        0
H        7.72914317      -3.99084976      -3.24155184  F        0
H        3.92376286      -3.98197393      -2.09159850  F        0
Fe       5.45723863       4.84606027       3.97977455  T        1
