133
Lattice="24.397 0.0 0.0 0.0 24.397 0.0 0.0 0.0 24.397" Properties=species:S:1:pos:R:3:move_mask:L:1:tags:I:1 i=41 E=-6943.8331748197 regions="_JSON [\"Active\"]" n_terminators=24 energy=-928.7249753196547 pbc="F F F"
O        9.62855167      14.68014085      -0.18507889  T        0
O       12.21329581       9.49019892       2.65700697  T        0
O       14.92227902      20.85785621       6.43561934  T        0
O        9.70665670      18.63792542       3.41179851  T        0
O       21.09326342      12.31086219       3.55666025  T        0
O       20.90164204      15.84769743       0.13449947  T        0
O       18.25811608      20.95844539       2.60082508  T        0
O       14.75494379       9.58492806       0.05332654  T        0
O        9.59866341      12.15674914       2.65864122  T        0
O       20.78283046      14.89489374       6.46216884  T        0
O       18.17754770       9.43470825       3.57036603  T        0
O        9.73815236      15.60002205       6.51743901  T        0
O       12.01142189      20.87787221       3.42591728  T        0
O       15.88491044      20.84572443      -0.11771250  T        0
O       20.98414926      18.16919804       2.53572616  T        0
O       11.46527763      13.94652678       1.94605663  T        0
O       14.00206023      11.33320864       1.96929454  T        0
O       18.93000874      16.53815087       1.90288251  T        0
O       16.68661963      18.92763063       1.85692155  T        0
O       10.26121434      10.17798955       0.94505580  T        0
O       11.12507965      16.61805895       4.50697725  T        0
O       13.86672227      19.28082707       4.58605577  T        0
O       19.17065207      13.94605542       4.50045341  T        0
O       16.60360574      11.48706240       4.51574868  T        0
O       20.21727758      20.17448695       0.94491430  T        0
O       12.06355943      11.98887301       3.66509724  T        0
O       18.53988551      18.49331769       3.64051316  T        0
O       12.25305402       8.67306638       0.09095740  T        0
O        8.76225068      12.14725076       0.09744320  T        0
O       12.29601881      14.73774550       6.07590054  T        0
O       12.28861453      18.24267015       2.73970224  T        0
O       15.84524774      18.28914752       6.16563541  T        0
O       18.26555772      15.86989143       6.16264322  T        0
O       18.48933708      12.02718724       2.82266134  T        0
O       18.38034147      21.81694094       0.04472767  T        0
O       21.85595392      18.32241961       0.01381398  T        0
O       10.51405201      16.61378429       1.85199806  T        0
O       13.94575963      10.24339792       4.48432663  T        0
O       20.00717947      14.06560642       1.94829433  T        0
O       16.44968985      20.02147737       4.34502073  T        0
O       16.49708711      10.48804195       1.92340340  T        0
O       10.44816605      13.99619391       4.42302933  T        0
O       14.03694714      20.03471377       1.98951739  T        0
O       20.07596129      16.44217998       4.36748332  T        0
O       20.10686404      22.69240818       1.94896006  T        0
O        7.75757813      10.42666274       1.93307957  T        0
O       22.76450515      20.03079778       1.89174414  T        0
O       10.51326451       7.63956288       1.86196113  T        0
Al      10.86115290      15.19166889       0.89793716  T        0
Si      13.05362094      10.78901497       3.19537002  T        0
Si      19.61905122      15.29686682       0.97334374  T        0
Si      17.47197397      19.63304574       3.13778388  T        0
Si      15.21183656      10.85616637       0.98430618  T        0
Si      10.90370024      13.03717690       3.15291572  T        0
Al      15.29722888      19.61431363       0.90712853  T        0
Si      19.66935079      17.43519879       3.15427713  T        0
Si       9.09338310      11.23435500       1.40461476  T        0
Si      10.89134331      15.23979570       5.38186941  T        0
Si      13.07463480      19.65159167       3.20230213  T        0
Si      19.57722173      15.25279867       5.40026215  T        0
Si      17.42029228      10.84868390       3.21499140  T        0
Si      21.46389872      19.20132064       1.33855180  T        0
Si      11.30044232       9.00139443       1.38455017  T        0
Si      19.67149730      13.06736447       3.21498789  T        0
Si      15.25068069      19.61004342       5.39972923  T        0
Si      10.83847205      17.47804184       3.15061737  T        0
Si      19.24227136      21.42671220       1.36565299  T        0
O       14.81950205      12.10242500      -2.57185959  T        0
O       15.83566927      18.41147714      -2.46451552  T        0
O       12.04731853      14.73230809      -2.48704017  T        0
O       18.32948828      15.72028652      -2.59502377  T        0
O       14.03197239      13.98783563      -0.87063019  T        0
O       16.55195003      16.48377191      -0.75156590  T        0
O       13.04174451      10.19096614      -1.94030237  T        0
O       10.07092876      12.89562476      -2.10649540  T        0
O       17.63920582      20.40285417      -2.08054209  T        0
O       20.24461737      17.46147809      -1.90676736  T        0
O       12.33651669      15.82921773      -0.01949108  T        0
O       15.64255925      12.08927492      -0.00186711  T        0
O       18.41659339      14.85792637      -0.03230952  T        0
O       14.72597634      18.14195824       0.02554780  T        0
O       12.28282980      12.24670687      -3.42788718  T        0
O       18.28703090      18.24775294      -3.49045171  T        0
O       16.55782259      13.93051312      -1.69894406  T        0
O       14.04626554      10.47730338      -4.45922170  T        0
O       22.74342170      16.44386788      -1.72108462  T        0
O       16.48609426      19.98755600      -4.48588637  T        0
O        7.55039613      13.76048087      -1.59128474  T        0
O       14.09548440      16.42735845      -1.92202851  T        0
O       10.53498304      13.97978253      -4.52423909  T        0
O       16.59819554      22.87850217      -1.63035957  T        0
O       20.05869204      16.41186969      -4.41621708  T        0
O       14.04259618       7.70121975      -1.69560767  T        0
Si      15.26035490      13.00272724      -1.28548523  T        0
Si      15.26557938      17.39787607      -1.33701846  T        0
Si      13.10051391      15.22890632      -1.35409098  T        0
Si      17.47083283      15.20595365      -1.31696955  T        0
Si      13.51380612       9.03068580      -0.87708201  T        0
Si      11.21647950      13.44879294      -3.12245077  T        0
Si      17.10932799      21.47936169      -0.94021047  T        0
Si      19.24704533      16.98586938      -3.11537015  T        0
Si       9.01483137      13.39301715      -0.93080655  T        0
Si      13.52322765      11.23777507      -3.10082631  T        0
Si      21.45226306      17.02659119      -0.89111757  T        0
Si      17.07445343      19.28513558      -3.12377669  T        0
H       14.01033133      21.15748981       6.62630180  F        0
H        9.33839640      18.82463975       4.28720704  F        0
H       21.15750258      11.67126816       4.28721909  F        0
H       21.15748967      14.01033142       6.62630180  F        0
H       18.82463962       9.33839646       4.28720704  F        0
H        9.33840600      16.48559124       6.62628668  F        0
H       11.67126808      21.15750273       4.28721909  F        0
H       15.74260560      11.12626617       4.82836018  F        0
H       12.70105695      15.05290863       6.89848520  F        0
H       15.44301084      17.79487314       6.89846715  F        0
H       17.79487301      15.44301094       6.89846715  F        0
H       14.73192765      10.71000053       4.85487458  F        0
H       20.83112530      23.15241223       1.48839475  F        0
H        7.34352333       9.66479174       1.48837704  F        0
H       23.15241204      20.83112542       1.48839475  F        0
H        9.66479163       7.34352337       1.48837704  F        0
H       13.68673308       9.66480596      -4.85513656  F        0
H       23.15240156      16.80916493      -2.53384338  F        0
H       16.80913871      20.83112323      -4.85512183  F        0
H        7.34352146      13.68671965      -2.53387758  F        0
H        9.66480591      13.68673318      -4.85513656  F        0
H       16.80916481      23.15240172      -2.53384338  F        0
H       20.83112308      16.80913882      -4.85512183  F        0
H       13.68671953       7.34352150      -2.53387758  F        0
Fe      16.67714837      16.85676340       1.53736535  T        0
Fe      13.42655430      16.87481208       1.38608685  T        0
O       15.15643785      15.58171580       1.69718803  T        0
O       14.92988133      16.63261716       2.71348560  T        0
