135
Lattice="20.102 0.0 0.0 0.0 19.731 0.0 0.0 0.0 13.253" Properties=species:S:1:pos:R:3:move_mask:L:1:tags:I:1 i=77 E=-3472.0240129048 regions="_JSON [\"Active\"]" n_terminators=36 energy=-888.9884234678393 pbc="F F F"
O        9.81422970      18.79103081       3.80517095  T        0
O       10.01655754      10.69916059       3.98364035  T        0
O       12.09763458      18.59512349       2.51850414  T        0
O       12.41278122      11.04544525       2.86003469  T        0
O       11.82383326      17.47279637       4.96873447  T        0
O       11.49285521      12.64170029       4.94415072  T        0
O        8.42795017       9.57038104       8.04048196  T        0
O       11.97898185      20.17865015       4.67400565  T        0
O       12.29935454      10.25412415       5.46513611  T        0
O       13.67223695      11.11400065       0.49881311  T        0
O        6.00859064      19.05987457      10.71907543  T        0
O        6.66742361      10.69125795      10.62512931  T        0
O       16.96002617      10.65633054       9.22393284  T        0
O       13.40040640       8.78588501       1.72600451  T        0
O       16.93897797      18.92883509       9.21446939  T        0
O        4.96928884      11.11515318       4.28191880  T        0
O        4.48716522      18.13930378       3.82849158  T        0
O       15.04082820      10.65753335       2.81505178  T        0
O       14.28179283      17.08406546      12.09686659  T        0
O       13.96236960      12.40985528      12.06535806  T        0
O        5.92022946      10.38674191       7.40727002  T        0
O        5.81429916      19.37261879       7.20278398  T        0
O        5.41058476       9.52019385       2.20065862  T        0
O       16.48272666       9.72468566       4.86863949  T        0
O        7.84903112      12.27514888       8.05045621  T        0
O        7.65865622      17.53393849       8.01329935  T        0
O        8.23308434      10.99553000       5.92644125  T        0
O        8.03076649      18.88426414       5.75363799  T        0
O        7.41865178      10.93724863       3.36647331  T        0
O        7.15360212      18.43595263       3.26117440  T        0
O       17.59598053      11.49495676       3.20021300  T        0
O        8.33686744       8.70147840       4.64231182  T        0
O       11.70781902      10.66578481       9.51704038  T        0
O       11.44426711      19.02141643       9.73399739  T        0
O        5.61843465      12.23409375       1.89642203  T        0
O        5.52914818      17.12517656       1.64350669  T        0
O       16.29985217      17.11309173       4.56709393  T        0
O       15.72902362      12.36317606       4.76496157  T        0
O       10.15408120      16.75198157       8.88734955  T        0
O        9.80665915      12.63486872       9.77734281  T        0
O        7.67424289      16.89471600      10.82887187  T        0
O        7.22933491      13.18484402      10.48526406  T        0
O       17.69134305      13.19730778       9.46148511  T        0
O       17.78832981      16.44296640       9.42821616  T        0
O        8.45225080      14.80706146       8.83489311  T        0
O        5.74866076      17.36801861      12.72671754  T        0
O        6.15223227      12.22219533      12.78662248  T        0
O       16.35639759      12.53619418       7.32439722  T        0
O       16.42231260      17.08055925       7.25336433  T        0
O        5.19740402      16.53784734      10.14470332  T        0
O        4.58764988      12.48646617      10.64233449  T        0
O       15.06109143      12.51631806       9.63633500  T        0
O       15.12174222      16.95469981       9.54247089  T        0
O        5.52268938      14.61912858       0.73955310  T        0
O       16.05260921      14.79181912       5.87634644  T        0
O        3.81708521      16.40672852      -0.35801590  T        0
O        3.76931481      12.69516335      -0.03734529  T        0
O       13.94004732      13.28109550       6.49033617  T        0
O       14.11470164      16.62503239       5.99018062  T        0
O       11.85922224      15.24140768       6.49350983  T        0
O       11.21653346      12.63551490       7.56880644  T        0
O       12.23924182      17.65791951       7.55814956  T        0
O       12.45547651      13.08799953       9.90234039  T        0
O       12.54968308      16.64671517      10.03926173  T        0
O       14.23330340      14.76838134      10.86242208  T        0
Si      11.43348166      18.75403226       4.02077170  T        0
Si      11.58838423      11.15537036       4.26838705  T        0
Si      13.66235427      10.40001773       1.98298994  T        0
Si       7.50242218      10.78676208       7.44202451  T        0
Si       7.42111075      18.95818899       7.27948742  T        0
Si       8.48837473      10.31617389       4.42089282  T        0
Si       8.26516508      19.21763124       4.18094760  T        0
Si       5.83712475      10.95852531       2.88451102  T        0
Si       5.62303609      18.41269897       2.66025198  T        0
Si      16.19130144      11.05275797       3.91990993  T        0
Al       8.37362520      16.56820530       9.27512726  T        0
Si       8.35740102      13.25228063       9.30927918  T        0
Si       6.17645975      17.45788653      11.12664839  T        0
Si       6.12922744      12.16863499      11.14189182  T        0
Si      16.50069219      12.21212268       8.91479500  T        0
Si      16.55431384      17.36212863       8.86032593  T        0
Si       5.31309636      16.19408274       0.32031325  T        0
Si       5.30493188      13.01572493       0.48615557  T        0
Si      15.50681625      13.25447038       6.12216921  T        0
Si      15.73061852      16.39162428       5.93678195  T        0
Al      12.25605230      13.47357297       6.34874422  T        0
Si      12.52840458      16.72911514       6.23452140  T        0
Si      11.28761143      12.21859755       9.16751693  T        0
Si      11.59205747      17.52683599       9.06311860  T        0
Si      13.93590925      13.17921404      10.60728345  T        0
Si      14.05419398      16.37145341      10.62916935  T        0
O        8.30890849      20.21486784       7.92218830  T        0
O        5.18355359      19.80686727       1.89124352  T        0
O        7.99471097      20.79639146       3.78706164  T        0
O        6.41672106      16.49923504      -0.86344653  T        0
O        6.36243255      12.32778927      -0.57302375  T        0
H       13.03074803      18.74401529       2.26762503  F        0
H        8.32625906       8.98649408       8.81306681  F        0
H       12.34310542      20.30287261       5.56688324  F        0
H       12.34314048       9.29328245       5.56696388  F        0
H       14.08297195      10.81847671      -0.34490677  F        0
H        6.59189912      19.77694965      11.03822749  F        0
H        6.59189033       9.81912404      11.03827922  F        0
H       16.64303307       9.81912404       8.84117322  F        0
H       13.65226955       8.06005012       2.32001841  F        0
H       16.64304187      19.77694965       8.84122497  F        0
H        4.05829635      10.79936776       4.41071281  F        0
H        4.05829635      18.79668859       4.41071282  F        0
H       14.40563884      18.04556895      12.19637069  F        0
H       14.40563885      11.55048737      12.19637067  F        0
H        5.06295559      10.84500939       7.26028495  F        0
H        5.06295559      18.75104696       7.26028496  F        0
H        5.72719027       9.20254625       1.33756862  F        0
H       15.77833301       9.20254623       5.28891552  F        0
H       18.17502404      10.93300163       2.66186473  F        0
H        8.66651872       8.12235896       3.93953912  F        0
H       11.52310774       9.76092419       9.21110646  F        0
H       11.52310955      19.83515307       9.21116341  F        0
H       15.87290964      17.87210703       4.12309272  F        0
H       18.05303808      13.25020103      10.35989921  F        0
H       18.05303809      16.34585533      10.35989921  F        0
H        5.86807409      16.61444052      13.33116226  F        0
H        5.86807409      12.98161584      13.33116226  F        0
H        4.26454119      16.60174699       9.87579966  F        0
H        4.26454119      12.99430937       9.87579967  F        0
H        2.98936131      16.34896307       0.14601228  F        0
H        2.98936131      13.24709329       0.14601228  F        0
H        8.32625906      20.60985804       8.81306681  F        0
H        5.72719026      20.39380587       1.33756863  F        0
H        8.66651872      21.47399316       3.93953912  F        0
H        6.36643797      17.19386972      -1.54340896  F        0
H        6.36643797      12.40218664      -1.54340896  F        0
Fe       9.50964502      12.73638843       6.09576211  T        0
Fe       9.83861354      15.44022237       7.22525987  T        1
O        9.06453892      14.48406996       5.86474143  T        2
