138
Lattice="24.397 0.0 0.0 0.0 24.397 0.0 0.0 0.0 24.397" Properties=species:S:1:pos:R:3:move_mask:L:1:tags:I:1 i=41 E=-6943.8331748197 regions="_JSON [\"Active\"]" n_terminators=30 energy=-941.7073565033514 pbc="F F F"
O        9.51882246      14.59295242       0.03441033  T        0
O       14.82055329      20.74129609       6.31392186  T        0
O        9.59045320      18.28716562       3.60927531  T        0
O       18.40933207      20.85310346       2.56706729  T        0
O        9.64281301      12.08661974       2.56707339  T        0
O        5.78687365      21.71558595       3.63542412  T        0
O        9.75460065      15.67541568       6.31386817  T        0
O       12.20872262      20.90555425       3.60923832  T        0
O       15.90297384      20.97724186       0.03434692  T        0
O       11.58653180      13.82864975       2.07203463  T        0
O       12.79542264      20.13216885       8.02520950  T        0
O       10.36371885      17.70050971       8.02520392  T        0
O       10.34533727      20.15063996       5.36970941  T        0
O        7.76695178      22.72903064       5.13807422  T        0
O       16.66720684      18.90950191       2.07197041  T        0
O       10.41947065      10.33431862       0.62220083  T        0
O       11.31946534      16.32236199       4.29239283  T        0
O       14.17354573      19.17657267       4.29236326  T        0
O       20.16164444      20.07647499       0.62219903  T        0
O       12.02576341      11.79568942       3.81768951  T        0
O       12.32200576      21.80146744       6.10823739  T        0
O        8.69446351      18.17398001       6.10823329  T        0
O        6.13408802      20.85039418       6.21227340  T        0
O       18.70013808      18.47011599       3.81765601  T        0
O        8.63466910      12.09182487       0.02999768  T        0
O       12.25696490      14.60206112       6.16306164  T        0
O       12.13460235      18.36136311       2.79460241  T        0
O       15.89380888      18.23890126       6.16297366  T        0
O       18.40413879      21.86128598       0.02999132  T        0
O       10.52608919      16.60128095       1.73313962  T        0
O       14.13415032      22.56300821       8.00015603  T        0
O        7.84318273      20.12853940       4.43403910  T        0
O       10.36742753      22.65288686       4.43414229  T        0
O       16.69681438      20.06708449       4.48239815  T        0
O       10.42884994      13.79911331       4.48240725  T        0
O        7.93286842      16.36179508       8.00009909  T        0
O       13.89457784      19.96990882       1.73306587  T        0
O       20.24884732      22.52114322       1.94084720  T        0
O        7.97478765      10.24708144       1.94082614  T        0
Al      10.90249060      14.96822689       0.99758014  T        0
Si      13.51429192      21.31699015       7.12667324  T        0
Si       9.10296379      19.19252349       4.89834731  T        0
Si       9.10781643      23.62778227       4.84450615  T        0
Si      17.62403458      19.56258301       3.21087054  T        0
Si      10.93335468      12.87185647       3.21090906  T        0
Si       6.86829007      21.38810754       4.84449426  T        0
Si       9.17890369      16.98166006       7.12664541  T        0
Si      11.30342022      21.39304375       4.89835796  T        0
Al      15.52765489      19.59357829       0.99750479  T        0
Si       9.16162653      11.17819976       1.28621376  T        0
Si      10.93115266      15.10134581       5.33065425  T        0
Si      13.11363594      19.62541813       3.15106027  T        0
Si      15.39457883      19.56478064       5.33063914  T        0
Si      10.87060100      17.38227665       3.15109511  T        0
Si      19.31774465      21.33430684       1.28621100  T        0
O        8.78031875      24.70911573       3.63535599  T        0
O        9.64543325      24.36205928       6.21228802  T        0
O       15.91426282      24.78025404      -3.44570677  T        0
O       18.48108024      24.31082136      -2.64045001  T        0
O       14.77079374      12.03013634      -2.41975112  T        0
O       15.84130930      21.70801406      -6.46831423  T        0
O        5.71580851      14.58168367      -3.44568093  T        0
O       15.79404983      18.30535265      -2.65150140  T        0
O       12.19059182      14.70189687      -2.65150659  T        0
O        8.78789225      14.65462381      -6.46824503  T        0
O       18.46576059      15.72517219      -2.41974544  T        0
O       14.02432665      14.01162199      -0.80718140  T        0
O       17.30245128      22.74177143      -4.49259342  T        0
O        7.75420334      13.19337755      -4.49253475  T        0
O       16.48428211      16.47161109      -0.80715946  T        0
O       12.79076311      10.25718267      -1.84874591  T        0
O       10.31677413      12.91990922      -1.88925054  T        0
O       17.57600791      20.17925013      -1.88929208  T        0
O       20.23876138      17.70516632      -1.84876610  T        0
O       12.06549505      15.71536031      -0.18702067  T        0
O       15.82154737      12.19452426       0.09356606  T        0
O       18.40187111      20.82773304      -6.07897069  T        0
O        6.18522237      12.01499652      -2.64008850  T        0
O        9.66821677      12.09405219      -6.07900007  T        0
O       18.30137895      14.67437537       0.09356294  T        0
O       14.78052984      18.43050120      -0.18704584  T        0
O       12.29930671      12.19127486      -3.51845171  T        0
O       18.30465911      18.19667256      -3.51843941  T        0
O       16.53856031      13.95736628      -1.69856291  T        0
O       14.12372501      10.31513914      -4.27186082  T        0
O       16.61316614      20.13478392      -4.38275494  T        0
O        7.82187096      13.84442481      -1.88292694  T        0
O       13.99140614      16.50454211      -1.83508333  T        0
O       10.36116301      13.88272977      -4.38274512  T        0
O       16.65164607      22.67423323      -1.88294600  T        0
O       20.18073557      16.37219238      -4.27187423  T        0
Si      15.27838014      13.02094172      -1.21801973  T        0
Si      17.03108917      21.38210118      -5.36371247  T        0
Si       6.86079222      13.42547333      -3.13700782  T        0
Si      15.28352163      17.41066636      -1.38837806  T        0
Si      13.08530101      15.21240902      -1.38839034  T        0
Si       9.11383919      13.46480607      -5.36369357  T        0
Si      17.07049834      23.63526939      -3.13710553  T        0
Si      17.47496451      15.21756096      -1.21801808  T        0
Si      11.27871219      13.40544671      -3.11306677  T        0
Si      17.13033756      21.43532847      -0.91625998  T        0
Si      19.31376094      17.00542849      -3.02333516  T        0
Si       9.06071093      13.36562023      -0.91622005  T        0
Si      13.49052343      11.18214935      -3.02332850  T        0
Si      17.09047538      19.21726062      -3.11307033  T        0
H        5.57209901      22.58475209       3.23920925  F        0
H       13.27046745      19.56837449       8.65412958  F        0
H       10.92750145      17.22544079       8.65411313  F        0
H       10.92752655       9.64346076       1.07209470  F        0
H       20.85246702      19.56839425       1.07212032  F        0
H       12.70105063      11.39908942       3.24464026  F        0
H        5.29989873      21.15211322       6.60185973  F        0
H       19.09683476      17.79487503       3.24462109  F        0
H       12.70105695      15.05290863       6.89848520  F        0
H       15.44301084      17.79487314       6.89846715  F        0
H       13.68673605      23.15239550       8.63276462  F        0
H        7.34350493      16.80917637       8.63275504  F        0
H       20.83112530      23.15241223       1.48839475  F        0
H        7.34352333       9.66479174       1.48837704  F        0
H        7.91116176      24.92409770       3.23921137  F        0
H        9.34383450      25.19630608       6.60185911  F        0
H       15.43756588      24.92408969      -4.28745700  F        0
H       18.80021526      25.19629522      -2.85480231  F        0
H       15.43758004      22.58476212      -6.62655944  F        0
H        5.57209393      15.05833723      -4.28746901  F        0
H        7.91114242      15.05832763      -6.62654864  F        0
H       13.27048028       9.64343273      -1.27111845  F        0
H       20.85247350      17.22542539      -1.27111836  F        0
H       15.44303658      11.39914474       0.50251735  F        0
H       18.80021053      21.15208141      -6.89875154  F        0
H        5.29990407      11.69569909      -2.85482259  F        0
H        9.34382502      11.69567665      -6.89874716  F        0
H       19.09678362      15.05286173       0.50248505  F        0
H       13.68673308       9.66480596      -4.85513656  F        0
H       20.83112308      16.80913882      -4.85512183  F        0
Fe      13.01655257      19.47598354      -0.04754059  T        0
Fe      11.01978550      17.47925241      -0.04758766  T        1
O       11.36708970      19.12872975      -0.73307191  T        2
