136
Lattice="24.397 0.0 0.0 0.0 24.397 0.0 0.0 0.0 24.397" Properties=species:S:1:pos:R:3:move_mask:L:1:tags:I:1 i=41 E=-6943.8331748197 regions="_JSON [\"Active\"]" n_terminators=24 energy=-953.6493793500093 pbc="F F F"
O        9.62477981      14.60455557      -0.03673576  T        0
O       12.30600884       9.48909332       2.57565375  T        0
O       14.90206539      20.82139078       6.40333430  T        0
O        9.32051770      18.02222511       3.75323222  T        0
O       15.63744724       9.80704513       6.52673472  T        0
O       21.08172257      12.19359950       3.47269636  T        0
O       20.95311889      15.76251319       0.08342566  T        0
O       18.23008200      20.84588969       2.48653487  T        0
O       14.73211483       9.54244315       0.08499308  T        0
O        9.64939589      12.26679234       2.48730693  T        0
O       20.69194317      14.85999038       6.52540184  T        0
O       18.30206615       9.41415064       3.47278640  T        0
O        9.67495826      15.59372635       6.40437612  T        0
O       12.47588072      21.17572270       3.75674001  T        0
O       15.89082450      20.87266786      -0.03602318  T        0
O       21.00564942      18.19065419       2.57476682  T        0
O       11.67575026      13.97153989       1.94765133  T        0
O       14.02436365      11.43072842       1.88875501  T        0
O       19.06574078      16.47007059       1.88943400  T        0
O       16.52250351      18.82090570       1.94834090  T        0
O       10.33371471      10.22879860       0.90065658  T        0
O       11.39342362      16.48742569       4.49975207  T        0
O       14.01067087      19.10167911       4.49767773  T        0
O       19.24170855      13.89085293       4.45855316  T        0
O       16.60638122      11.25508094       4.45881069  T        0
O       20.26824295      20.16300310       0.89828701  T        0
O       12.07185864      11.95746523       3.60080711  T        0
O       18.53717198      18.42334613       3.60027213  T        0
O       12.23191691       8.61630474       0.04520660  T        0
O        8.70152468      12.08926080      -0.01988110  T        0
O       12.19119852      14.57420769       6.22629748  T        0
O       11.84280559      18.65401295       3.07310446  T        0
O       15.92125277      18.30472436       6.22593447  T        0
O       18.19439661      15.77657759       6.07761681  T        0
O       18.46484948      12.03136544       2.75184656  T        0
O       14.72108351      12.30359225       6.07597775  T        0
O       18.40721653      21.79564059      -0.02039676  T        0
O       21.87960940      18.26275145       0.04497396  T        0
O       10.53669589      16.59562472       1.94493195  T        0
O       14.08385206      10.40361070       4.37970498  T        0
O       20.06075430      13.98207270       1.87821743  T        0
O       16.52497936      20.01961829       4.37862142  T        0
O       16.51318014      10.43614084       1.87878575  T        0
O       10.47742180      13.97200955       4.37823936  T        0
O       13.89882294      19.96246465       1.94386206  T        0
O       20.09280566      16.41386976       4.38054609  T        0
O       20.09278247      22.66649355       1.90941957  T        0
O        7.82896365      10.40365189       1.90908491  T        0
O       22.79560116      20.01286533       1.88241588  T        0
O       10.48215604       7.70074034       1.88400249  T        0
Al      10.87773483      15.27363438       0.91987949  T        0
Si      13.11130409      10.80055443       3.13187274  T        0
Si      19.66438965      15.25137575       0.94559357  T        0
Si      17.45586657      19.54935110       3.12475002  T        0
Si      15.24384023      10.83186565       0.94589587  T        0
Si      10.94682646      13.03972472       3.12510701  T        0
Al      15.22137504      19.61958967       0.92011809  T        0
Si      19.69495144      17.38472062       3.13175620  T        0
Si       9.11333476      11.24437285       1.31165628  T        0
Si      10.91985255      15.20171242       5.39120047  T        0
Si      13.06653479      19.70560385       3.28569252  T        0
Si      19.56397413      15.21304169       5.37523842  T        0
Si      17.47319481      10.79959336       3.14945318  T        0
Si      21.48884128      19.17605434       1.34716154  T        0
Si      11.31966390       9.00702056       1.34831326  T        0
Si      15.28402432      10.93317062       5.37495667  T        0
Si      19.69664430      13.02302545       3.14943977  T        0
Si      15.29481991      19.57642671       5.39069908  T        0
Si      10.79126730      17.43024118       3.28570553  T        0
Si      19.25219643      21.38254847       1.31082605  T        0
O       14.76735422      12.15981437      -2.60564997  T        0
O       15.86136482      18.30733982      -2.57778566  T        0
O       12.18867198      14.63484235      -2.57963687  T        0
O       18.33367151      15.73080352      -2.60517943  T        0
O       14.11259025      13.97857251      -0.77180428  T        0
O       16.51584926      16.38275413      -0.76934790  T        0
O       13.05702412      10.21230718      -1.90377631  T        0
O       10.13748613      12.93122346      -2.07356076  T        0
O       17.56492219      20.35757484      -2.07152949  T        0
O       20.28415501      17.43915840      -1.90452073  T        0
O       12.36131282      15.60393127      -0.02461071  T        0
O       15.69726940      12.02693339      -0.07169996  T        0
O       18.46903126      14.79887715      -0.07197647  T        0
O       14.89181190      18.13547885      -0.02376456  T        0
O       12.23662123      12.14720402      -3.49619620  T        0
O       18.34863554      18.26021730      -3.49686013  T        0
O       16.60784687      13.88812141      -1.75140894  T        0
O       14.11006606      10.41770712      -4.41092144  T        0
O       22.78457663      16.42226398      -1.71661443  T        0
O       16.53350128      19.95207994      -4.53591961  T        0
O        7.66232284      13.95643324      -1.65949732  T        0
O       14.09574203      16.40019500      -1.94230777  T        0
O       10.54489207      13.96119283      -4.53788983  T        0
O       16.53825272      22.83297649      -1.66009169  T        0
O       20.07821670      16.38591636      -4.41050823  T        0
O       14.07300073       7.71178942      -1.71651650  T        0
Si      15.32321988      12.98241150      -1.32375410  T        0
Si      15.30031675      17.36340230      -1.38854635  T        0
Si      13.13255593      15.19499215      -1.38983953  T        0
Si      17.51253031      15.17325691      -1.32301470  T        0
Si      13.51272298       9.01043343      -0.88396565  T        0
Si      11.24731260      13.40635054      -3.16186892  T        0
Si      17.08282303      21.45992599      -0.93618380  T        0
Si      19.27965280      16.97950845      -3.10990631  T        0
Si       9.03643084      13.41295097      -0.93675331  T        0
Si      13.51709135      11.21574515      -3.10985384  T        0
Si      21.48554008      16.98235954      -0.88458397  T        0
Si      17.08933134      19.24886957      -3.16070022  T        0
H       14.01033133      21.15748981       6.62630180  F        0
H        9.33839640      18.82463975       4.28720704  F        0
H       16.48559112       9.33840607       6.62628668  F        0
H       21.15750258      11.67126816       4.28721909  F        0
H       21.15748967      14.01033142       6.62630180  F        0
H       18.82463962       9.33839646       4.28720704  F        0
H        9.33840600      16.48559124       6.62628668  F        0
H       11.67126808      21.15750273       4.28721909  F        0
H       12.70105695      15.05290863       6.89848520  F        0
H       15.44301084      17.79487314       6.89846715  F        0
H       17.79487301      15.44301094       6.89846715  F        0
H       15.05290853      12.70105704       6.89848521  F        0
H       20.83112530      23.15241223       1.48839475  F        0
H        7.34352333       9.66479174       1.48837704  F        0
H       23.15241204      20.83112542       1.48839475  F        0
H        9.66479163       7.34352337       1.48837704  F        0
H       13.68673308       9.66480596      -4.85513656  F        0
H       23.15240156      16.80916493      -2.53384338  F        0
H       16.80913871      20.83112323      -4.85512183  F        0
H        7.34352146      13.68671965      -2.53387758  F        0
H        9.66480591      13.68673318      -4.85513656  F        0
H       16.80916481      23.15240172      -2.53384338  F        0
H       20.83112308      16.80913882      -4.85512183  F        0
H       13.68671953       7.34352150      -2.53387758  F        0
Fe      16.03841920      16.87029415       1.45495455  T        0
Fe      13.62532214      14.45580879       1.45398708  T        1
O       14.71679893      15.77799081       2.59783400  T        2
O       15.59788051      14.89692987       1.74175400  T        3
