138
Lattice="20.102 0.0 0.0 0.0 19.731 0.0 0.0 0.0 13.253" Properties=species:S:1:pos:R:3:move_mask:L:1:tags:I:1 i=77 E=-3472.0240129048 regions="_JSON [\"Active\"]" n_terminators=34 energy=-923.3434368217646 pbc="F F F"
O       10.05695494       8.49832577       9.35405013  T        0
O        9.92705678      18.90601047       4.02461213  T        0
O        9.95950894      11.07812809       4.04915929  T        0
O        2.21625234      11.35985310       3.98463801  T        0
O        7.73555290       8.24471523      10.66487625  T        0
O       12.09386410      18.59535887       2.50305735  T        0
O       12.11540586      10.89546063       2.59242816  T        0
O        7.97960177       7.25032132       8.20807886  T        0
O       11.92762694      17.45405227       4.94895163  T        0
O       11.92119501      12.63489119       4.72119291  T        0
O        7.91777304       9.92820406       8.64463236  T        0
O       12.29342984      20.12215787       4.61753126  T        0
O       12.23102908      10.02227587       5.13963643  T        0
O        3.66014378      10.78963885       6.09902569  T        0
O        3.04353822       8.85496657       4.23328548  T        0
O       17.05137634      10.63729089       9.17073910  T        0
O       17.01229593      18.94792053       9.19073343  T        0
O        4.84575059      10.78486717       3.69946269  T        0
O        3.62197640      12.08681653       8.52663501  T        0
O       14.30741827      17.08202784      12.07954301  T        0
O       14.20860061      12.49167739      12.04594800  T        0
O        5.88601313      11.15934260       7.49082223  T        0
O        5.86273624      19.20029511       7.60584717  T        0
O       14.24101903       8.83299346       6.53941326  T        0
O        3.94539397       9.40349779       8.27703593  T        0
O        6.40294756       9.77802063       1.72086849  T        0
O        8.08382598      12.48103116       7.96193646  T        0
O        7.77976346      17.35269338       8.05445510  T        0
O       12.37569467       7.38879885       5.16748535  T        0
O        8.09347997      10.60389897       6.06244937  T        0
O        7.88558513      18.69209259       5.82179861  T        0
O       11.84262986       8.69603992       7.42968387  T        0
O        7.43716328      11.37710434       3.46701215  T        0
O        7.51615229      18.42727365       3.16492461  T        0
O       12.57409359       8.46279211      10.06934203  T        0
O        8.41816363       8.54926009       3.97747664  T        0
O       11.48633193      10.73888607       9.08067070  T        0
O       11.84601841      19.05666794       9.68924303  T        0
O        5.62825720      12.36649664       1.69673830  T        0
O       16.10015569      17.02279553       4.54487011  T        0
O       16.00132448      12.58900384       4.56104047  T        0
O       10.03354615      17.04139119       9.48649361  T        0
O        9.94136355      12.81398820       9.82322739  T        0
O       10.20525769       6.55667160       3.72375303  T        0
O        7.66028562      16.59211791      10.63680549  T        0
O        7.32730941      13.39292475      10.44536080  T        0
O       17.81788219      13.15130224       9.42193884  T        0
O       12.60035472       6.46692402       2.64717635  T        0
O       17.77666753      16.43144025       9.42982452  T        0
O        8.69283789      14.90904092       8.72660426  T        0
O       12.02280000       4.84638955       4.76005556  T        0
O       16.52949174      12.47827169       7.22431165  T        0
O       16.45336516      17.12995328       7.23477636  T        0
O       15.17267281      12.53517625       9.53189117  T        0
O       15.12877798      17.03339379       9.51792223  T        0
O        5.55189272      14.83624863       1.03939607  T        0
O       16.05653676      14.80963360       5.93871100  T        0
O        6.00260224       6.66934256       6.44944049  T        0
O        3.85557018      13.04745817      -0.25060680  T        0
O       14.08935133      13.12001666       6.48833253  T        0
O       14.05658529      16.58331214       6.27571921  T        0
O        7.64733989       4.71451282       7.47802796  T        0
O       11.83548853      15.09959417       6.21762210  T        0
O        8.50077943       6.51491795       5.69709198  T        0
O       11.29325864      12.96779110       7.56106196  T        0
O       11.84286837      17.39191282       7.56766561  T        0
O        7.64257450       6.12697314       3.15632148  T        0
O       12.59345175      12.99418106       9.92325056  T        0
O       12.57687455      16.57723770      10.03385474  T        0
O       14.35499919      14.78147945      10.78915930  T        0
Si       8.43245586       8.47183090       9.18701287  T        0
Si      11.55160179      18.75870344       4.04697069  T        0
Si      11.60842144      11.16487337       4.14145416  T        0
Si       3.46827814      10.42674925       4.51322558  T        0
Si       4.28957677      10.87688608       7.61059615  T        0
Si       7.50217993      11.00039177       7.48827942  T        0
Si       7.45902920      18.82929127       7.38582559  T        0
Si      12.67143995       8.73364524       6.03343489  T        0
Al       8.45724482      10.18145988       4.41820720  T        0
Si       8.35501187      19.21835244       4.33957548  T        0
Si      11.52489373       9.10563453       8.97788199  T        0
Si       6.03933462      11.09986034       2.63611374  T        0
Si       8.51762936      16.51566505       9.23912927  T        0
Si       8.48606356      13.33388228       9.29187425  T        0
Si      11.78223759       6.32453345       4.07303358  T        0
Si      16.61912933      12.19721388       8.83310331  T        0
Si      16.58105240      17.39144958       8.84600176  T        0
Si       5.35277676      13.33184332       0.40001428  T        0
Si      15.63914893      13.22057266       6.05023377  T        0
Si      15.66398577      16.38847637       5.99986905  T        0
Si       7.52612772       6.28161579       6.97124832  T        0
Al      12.42930895      13.39110038       6.20249558  T        0
Si      12.43810564      16.62091561       6.24579017  T        0
Si       8.67639030       6.97116137       4.13219386  T        0
Si      11.35651427      12.35586633       9.09101750  T        0
Si      11.57269501      17.51734914       9.17599643  T        0
Si      14.09055239      13.18649636      10.55796248  T        0
Si      14.10464364      16.38117436      10.60329932  T        0
O        8.42369584      19.98063406       8.07284649  T        0
O        8.06634589      20.84118981       4.36156446  T        0
O        6.42718683      13.06087591      -0.82324032  T        0
H        1.81269882      11.30123319       3.09859993  F        0
H        7.07153747       8.87866318      10.98534327  F        0
H       13.03074803      18.74401529       2.26762503  F        0
H       13.03074804      10.85204106       2.26762503  F        0
H       12.34310542      20.30287261       5.56688324  F        0
H        3.60112680       8.06005012       4.30646574  F        0
H       16.64303307       9.81912404       8.84117322  F        0
H       16.64304187      19.77694965       8.84122497  F        0
H        4.03182275      12.92715973       8.82439874  F        0
H       14.40563884      18.04556895      12.19637069  F        0
H       14.40563885      11.55048737      12.19637067  F        0
H        5.06295559      18.75104696       7.26028496  F        0
H       15.03932990       8.88569483       5.99268334  F        0
H        4.11249823       9.08086468       9.18193973  F        0
H        5.72719027       9.20254625       1.33756862  F        0
H        6.55301950      18.28668004       3.13509397  F        0
H       13.54926599       8.42132791      10.11787432  F        0
H       11.52310955      19.83515307       9.21116341  F        0
H       15.87290964      17.87210703       4.12309272  F        0
H       15.87290964      11.72394929       4.12309273  F        0
H        6.74596320      16.92620537      10.74076342  F        0
H        6.74596321      12.66985099      10.74076342  F        0
H       18.05303808      13.25020103      10.35989921  F        0
H       13.35632228       7.06085325       2.51220488  F        0
H       18.05303809      16.34585533      10.35989921  F        0
H       11.61525895       4.01919395       4.45233654  F        0
H        5.67587981      15.71242072       0.63388066  F        0
H        5.18772305       6.48136951       6.94399129  F        0
H        2.98936131      13.24709329       0.14601228  F        0
H        7.92514400       4.01763560       6.85279547  F        0
H        6.78202892       6.52695113       2.93525138  F        0
H        8.32625906      20.60985804       8.81306681  F        0
H        8.66651872      21.47399316       3.93953912  F        0
H        6.36643797      12.40218664      -1.54340896  F        0
Fe       9.85578641      14.42128443       6.76846555  T        0
Fe       8.77277488      12.81171001       4.20048937  T        1
O        8.85266664      14.29216903       5.22984914  T        2
