141
Lattice="20.102 0.0 0.0 0.0 19.731 0.0 0.0 0.0 13.253" Properties=species:S:1:pos:R:3:move_mask:L:1:tags:I:1 i=77 E=-3472.0240129048 regions="_JSON [\"Active\"]" n_terminators=34 energy=-947.7962789755184 pbc="F F F"
O       10.09772892      18.83713335       3.88497032  T        0
O       10.04286083      10.56085294       3.90598463  T        0
O        2.27107506      11.32206402       3.96025663  T        0
O        2.32514623      18.20300721       3.91699222  T        0
O       12.50897093      18.16902051       2.85250102  T        0
O       12.25286656      11.30810190       2.62976262  T        0
O       11.74006342      17.17849049       5.13005603  T        0
O       11.61936813      12.37077429       5.00010668  T        0
O        8.64106831       9.67305004       8.19816578  T        0
O       12.31529041      19.80986822       4.99611323  T        0
O       12.54362985       9.80212210       4.76456359  T        0
O        3.86348286      10.52367955       5.94491378  T        0
O        3.73185844      18.92887744       5.98252640  T        0
O        5.97194781      18.98591517      10.83485801  T        0
O        3.21027631       8.84490777       3.89260124  T        0
O        6.01253274      10.52489262      10.70895811  T        0
O        4.89485735      10.89946631       3.53326168  T        0
O        4.97114427      18.75250490       3.64843760  T        0
O        4.30949341      12.11770266       8.02889489  T        0
O        3.84071727      17.17159117       8.00285482  T        0
O        6.14562323      10.33383551       7.34083974  T        0
O        6.00538326      18.53688646       7.24592513  T        0
O        3.82223006       9.40298880       8.30747889  T        0
O        6.09121138      10.09740629       1.24315922  T        0
O        4.00481881      19.78547113       8.48152029  T        0
O        7.87504504      12.26071973       8.07543044  T        0
O        8.09278977      17.07781787       7.98647758  T        0
O        8.31196565      10.94199070       5.88870274  T        0
O        8.22497832      18.49698904       5.78275495  T        0
O        7.52122537      11.11187886       3.33356951  T        0
O        7.55910317      18.61266088       3.19409360  T        0
O        8.13842660       8.73597010       4.46786924  T        0
O       11.78907780      10.53301958       9.74642969  T        0
O       11.46778891      19.05752069       9.02848486  T        0
O        6.08469679      12.68579633       1.84844543  T        0
O        5.98777978      16.90967662       1.91255755  T        0
O       16.04414586      17.01674007       4.56547656  T        0
O       16.26692949      12.48797740       4.59494685  T        0
O       10.25218340      16.82943524       9.88832859  T        0
O        9.93159206      12.52120635       9.77020554  T        0
O        7.43273204      16.72071245      10.81483184  T        0
O        7.44766008      12.83957634      10.64530556  T        0
O        8.47306977      14.67014949       8.95711203  T        0
O        5.70955927      17.41303843      12.81773065  T        0
O        6.05416699      12.16539977      12.83541803  T        0
O       16.74459294      12.55835858       7.26216242  T        0
O       16.51068426      17.15645807       7.19532050  T        0
O        4.80414374      16.62981038      10.41336843  T        0
O        4.75543869      12.81499622      10.57631900  T        0
O       16.01954180      14.77694287       5.93015266  T        0
O       14.24278840      12.80050625       6.36440835  T        0
O       14.03886224      16.50752166       6.35317800  T        0
O       12.03908473      14.72345177       6.03824015  T        0
O       11.76006356      12.43272854       7.81856762  T        0
O       11.77070534      16.73990085       7.73905357  T        0
O        2.16143043      16.22275280       9.94312751  T        0
O        2.25416761      12.52485320       9.54497496  T        0
O       12.36298036      13.07024281      10.40209250  T        0
O       12.96116003      17.26559539      10.10584491  T        0
O        3.88820467      14.62918098       8.86630357  T        0
Si      11.67085266      18.53127718       4.21985452  T        0
Si      11.60538551      10.98055514       4.10042887  T        0
Si       3.57293544      10.39131030       4.34526294  T        0
Si       3.56889069      19.16730712       4.38126447  T        0
Si       4.52682091      10.60618678       7.43381824  T        0
Si       4.38802276      18.60606791       7.43543646  T        0
Si       7.70553606      10.77896096       7.39452084  T        0
Si       7.62174685      18.51075288       7.29996996  T        0
Si       8.49205325      10.34329487       4.38490081  T        0
Si       8.56627107      19.18126070       4.34088405  T        0
Si       6.11526273      11.17860900       2.49274824  T        0
Si       6.08598877      18.43766854       2.49699405  T        0
Al       8.60842544      16.38538516       9.60279523  T        0
Si       8.45701304      13.06431254       9.37970457  T        0
Si       6.02080194      17.40141684      11.19769310  T        0
Si       6.08512247      12.10914011      11.19207303  T        0
Si      15.78645220      13.14568723       6.03842098  T        0
Si      15.64676421      16.36626296       6.02829619  T        0
Al      12.56303120      13.03364306       6.42108244  T        0
Si      12.42913690      16.30621478       6.32614776  T        0
Si      11.47882632      12.11818873       9.37593425  T        0
Si      11.58305495      17.44657213       9.21577666  T        0
Si       3.68479520      16.19404659       9.31305361  T        0
Si       3.78436960      13.04271225       9.26843814  T        0
O       10.03014728      21.29667298       9.26055915  T        0
O        7.62774246      21.00591891      10.44289540  T        0
O        7.69066014      22.43654533       8.31108606  T        0
O        8.20467161      19.76236192       8.13864683  T        0
O        6.34986257      20.99175047      12.72874642  T        0
O        3.16988665      20.72303994       3.99238603  T        0
O        4.95333487      21.34383799      10.42147728  T        0
O       14.27267324      20.80356511       6.57644191  T        0
O        5.91148498      19.45151842       1.20435672  T        0
O       12.69232304      22.44514724       5.18980625  T        0
O       11.79798684      21.04874270       7.33294504  T        0
O        2.27808600      21.32948083       9.86474555  T        0
O       12.60507276      21.37052611       9.92848371  T        0
O        8.37390671      20.81166229       4.58620560  T        0
O        3.76033222      22.47566893       8.21244087  T        0
Si       8.41566477      21.13441742       9.01958191  T        0
Si       6.21165419      20.56966428      11.14894687  T        0
Si      12.74496231      21.01825951       6.01600810  T        0
Si      11.51413059      20.67552722       8.91015819  T        0
Si       3.80071462      21.21293777       9.26004561  T        0
H        1.81269882      11.30123319       3.09859993  F        0
H        1.81269882      18.29482316       3.09859994  F        0
H       13.03074803      18.74401529       2.26762503  F        0
H       13.03074804      10.85204106       2.26762503  F        0
H        8.32625906       8.98649408       8.81306681  F        0
H       12.34314048       9.29328245       5.56696388  F        0
H        3.60112680       8.06005012       4.30646574  F        0
H        6.59189033       9.81912404      11.03827922  F        0
H        4.11249823       9.08086468       9.18193973  F        0
H        5.72719027       9.20254625       1.33756862  F        0
H        8.66651872       8.12235896       3.93953912  F        0
H       11.52310774       9.76092419       9.21110646  F        0
H        5.53537813      12.95496052       1.09262639  F        0
H        5.53537813      16.64109584       1.09262638  F        0
H       15.87290964      17.87210703       4.12309272  F        0
H       15.87290964      11.72394929       4.12309273  F        0
H        5.86807409      16.61444052      13.33116226  F        0
H        5.86807409      12.98161584      13.33116226  F        0
H       16.41758072      12.40218664       8.16986141  F        0
H       16.41758072      17.19386972       8.16986141  F        0
H        1.73086688      16.98843832      10.35624453  F        0
H        1.73086689      12.60761804      10.35624453  F        0
H       13.32025657      13.20375310      10.31771692  F        0
H       13.32025658      16.39230324      10.31771692  F        0
H        7.84356087      22.87259074       7.45668424  F        0
H        6.01931354      20.68412461      13.59787507  F        0
H        3.60112680      21.53630199       4.30646574  F        0
H       15.03932989      20.71065726       5.99268335  F        0
H        5.72719026      20.39380587       1.33756863  F        0
H       11.89104871      22.77092679       4.74838323  F        0
H        1.92726146      20.79864952      10.59110356  F        0
H       13.54926599      21.17502420      10.11787433  F        0
H        8.66651872      21.47399316       3.93953912  F        0
H        4.51576461      22.82060840       7.71911054  F        0
Fe      10.34247962      13.95552083       5.06778950  T        0
Fe       8.28503960      15.31820332       6.98778015  T        1
O        8.70349104      14.67077351       5.34719526  T        2
