136
Lattice="24.397 0.0 0.0 0.0 24.397 0.0 0.0 0.0 24.397" Properties=species:S:1:pos:R:3:move_mask:L:1:tags:I:1 i=41 E=-6943.8331748197 regions="_JSON [\"Active\"]" n_terminators=30 energy=-929.6446139033905 pbc="F F F"
O       21.59389252      14.91011466      12.11019984  T        0
O       22.16867024      18.83682818      15.74690822  T        0
O       18.38012231      14.93732734       8.65943031  T        0
O       20.71884901       3.31492537      11.95932052  T        0
O       18.23782754       8.75826297      14.90555982  T        0
O       21.70035058      12.20902724      14.90114546  T        0
O       20.98430312      14.76829646       5.90075673  T        0
O       15.49546270      11.98778222       8.55068908  T        0
O       21.66464332      15.65509007      18.32532994  T        0
O       15.53967104       8.58945274      12.02688577  T        0
O       20.95507921       6.02507865      14.94366053  T        0
O       23.54209713      13.74594008      13.78786602  T        0
O       22.65428369       5.41089175       7.73583060  T        0
O       17.62254110      10.43331687       7.76008611  T        0
O       19.93287601      12.98829726       7.63188097  T        0
O       22.77633201      13.05375843      10.58466159  T        0
O       22.83302376      10.73561363      13.03196034  T        0
O       23.53428240      16.74885719      16.75171510  T        0
O       17.62385888       7.78423826      10.42246691  T        0
O       20.01287440       5.45471484      10.38679474  T        0
O       19.87322794       7.66504845      13.08332944  T        0
O       24.32703761      15.76880111      12.03056912  T        0
O       24.30671414      12.11628131      15.70769060  T        0
O       18.03513676      12.36177772       9.41050106  T        0
O       21.96058104      12.21365118       6.00757407  T        0
O       20.87455252      12.32738773      12.30404241  T        0
O       24.25648097      14.91063907      18.52333590  T        0
O       24.55207468      18.25202427      14.73595320  T        0
O       18.09896090       9.49480834      12.32063804  T        0
O       21.65245278       5.83534428      12.35317592  T        0
O       22.62313135      16.53974943      14.27915809  T        0
O       22.49359841       4.37881121      10.26536689  T        0
O       20.16973541      13.74035152      10.17366097  T        0
O       22.78422934      14.16544767      16.41731804  T        0
O       22.44885592      13.84930497       7.97228686  T        0
O       16.54643218      10.27423732      10.26427624  T        0
O       20.19671909      10.24629538      13.80444339  T        0
O       22.40495697       7.91619023      13.86267581  T        0
Al      22.98933868      15.37238274      13.06544859  T        0
Si      23.48057311       4.76101070       9.01304344  T        0
Si      19.11629963      13.49180093       8.96489847  T        0
Si      23.06774765      13.07506739      15.24304048  T        0
Si      21.30149894      13.45435790       6.85411751  T        0
Si      16.90918515      11.25414751       9.00209215  T        0
Si      23.52812003      13.54690552       9.15121672  T        0
Si      21.35894900      11.35500458      13.52451185  T        0
Si      23.07113872      15.37658569      17.49310904  T        0
Si      16.94417807       9.02671150      11.26325433  T        0
Si      21.24403793       6.87167171      13.55283052  T        0
Si      21.30656759      13.55869272      11.31554377  T        0
Al      23.57849723       9.11627899      13.54981262  T        0
Si      23.18860961      17.58390615      15.36511476  T        0
Si      21.21677914       4.73199666      11.24976123  T        0
Si      19.10999435       9.03537108      13.52341392  T        0
O       24.51703741       9.53962474      14.96328227  T        0
O       27.09486364      12.26216460       9.49121248  T        0
O       26.93552984       8.80031864       5.82010326  T        0
O       24.24868862       3.35019647       8.60845314  T        0
O       24.59255727      15.83146882      21.06638536  T        0
O       27.94943996       9.46687993      18.19912742  T        0
O       27.80283089      18.57086633       9.66707514  T        0
O       27.12084268       9.58659411      12.15163834  T        0
O       24.41831681      14.87889398       9.49148911  T        0
O       28.04789599      12.41258236      21.10483802  T        0
O       30.68084583       9.62367880      15.61330907  T        0
O       27.16621843       6.16958863       8.67024071  T        0
O       30.78519191      15.61821562       9.71995874  T        0
O       26.03196783      11.41276286      13.81335510  T        0
O       26.02713014      13.86083539      11.32582863  T        0
O       25.25432422       7.80478536       7.67823077  T        0
O       28.92488803      16.74969930      11.29454635  T        0
O       25.31665814      10.57762584      10.49415586  T        0
O       26.17776248      16.61374657      18.95859497  T        0
O       28.97369595      11.42737123      16.65769554  T        0
O       28.83869281      13.96212382      18.97323077  T        0
O       27.88273403      12.14120654      12.07424119  T        0
O       24.39009595       9.76610895       6.02080183  T        0
O       24.56419851       5.92600232       9.41791180  T        0
O       30.46749088      14.75392029      12.29077053  T        0
O       26.91874955      18.30871834      12.23682938  T        0
O       24.58264061       8.70415384      12.20329969  T        0
O       24.51531975      12.32697946       8.71149297  T        0
O       30.60455776      12.17547382      14.62017335  T        0
O       27.19147953      12.03538422      18.56730384  T        0
O       26.43268660      10.69058011      16.41825238  T        0
O       28.63332673      14.19384950      10.54000613  T        0
O       26.10861610      10.33962083       7.88260857  T        0
O       26.40271131      16.42895261      10.46956406  T        0
O       28.62849757      10.57881635      14.13216771  T        0
O       26.15216616       8.00478477      10.18496846  T        0
O       26.33638436      14.13029500      20.04953038  T        0
Si      25.30137299      10.89025271      15.27420218  T        0
Si      27.45082050      13.12252102      10.84770798  T        0
Si      25.67360608       9.14380522       6.83129687  T        0
Si      27.52569222      17.53662071      10.92688450  T        0
Si      27.45524746      10.90912284      13.05495905  T        0
Si      25.27297527      15.30881603      10.84445421  T        0
Si      25.75520998       6.96028665       8.99484974  T        0
Si      29.72245037      15.35609321      10.95948528  T        0
Si      25.78380981       9.15788762      11.27642336  T        0
Si      29.74494023      10.94903730      15.28876159  T        0
Si      27.59719777      13.14536743      19.69046055  T        0
Si      25.77095155      11.36320722       9.10001464  T        0
Si      27.64223586      10.91844723      17.47500931  T        0
Si      25.33556201      15.37719575      19.65735442  T        0
H       21.53675922      18.82464154      16.48557585  F        0
H       17.77044825      15.05832767       7.91114389  F        0
H       20.10951519       3.23923103      12.72546793  F        0
H       17.77044795       7.91114248      15.05833030  F        0
H       20.10952727      15.05833719       5.57209478  F        0
H       15.43760507      12.72548405       7.91113339  F        0
H       21.53675926      16.48557294      18.82464504  F        0
H       15.43760512       7.91113194      12.72548646  F        0
H       20.10952727       5.57209364      15.05833987  F        0
H       21.84183657       5.02705817       7.37003090  F        0
H       17.22544603       9.64342904       7.37003541  F        0
H       17.22544607       7.37003419       9.64343075  F        0
H       19.56839356       5.02707813       9.64345142  F        0
H       21.54217341      11.69569933       5.29990500  F        0
H       24.89948235      19.09678254      15.05286388  F        0
H       27.25697428       7.91116076       5.57209299  F        0
H       24.92409737       3.23921078       7.91116324  F        0
H       23.86979058      16.48550415      21.15750134  F        0
H       28.68420627       9.33839650      18.82464325  F        0
H       28.68420627      18.82464007       9.33839816  F        0
H       28.68421830      11.67126782      21.15750647  F        0
H       31.02328530       9.33840603      16.48559414  F        0
H       27.25697431       5.57209217       7.91116218  F        0
H       31.02328560      16.48559123       9.33840773  F        0
H       26.95189696      17.02670421      19.36967907  F        0
H       29.22534015      14.75328399      19.36965915  F        0
H       23.89425140       9.34387249       5.29995205  F        0
H       31.29548389      15.05290867      12.70105939  F        0
H       27.25156018      19.09682961      12.70103672  F        0
H       31.29548387      12.70105727      15.05291128  F        0
Fe      24.19634043      12.26970131      12.40890792  T        1
