132
Lattice="20.102 0.0 0.0 0.0 19.731 0.0 0.0 0.0 13.253" Properties=species:S:1:pos:R:3:move_mask:L:1:tags:I:1 i=77 E=-3472.0240129048 regions="_JSON [\"Active\"]" n_terminators=32 energy=-885.3596099214375 pbc="F F F"
O       10.21644781       8.51564241       9.58511959  T        0
O        9.92309820      18.87490191       4.02665163  T        0
O        9.91822718      10.68634018       3.87461182  T        0
O        2.17090856      11.33056916       4.00378682  T        0
O        7.73488452       8.27456107      10.60030218  T        0
O       12.09662649      18.60788761       2.51963087  T        0
O       12.19796471      10.55078683       2.66702446  T        0
O        8.36337901       7.05831018       8.31154127  T        0
O       12.00988695      17.60870749       5.04243567  T        0
O       11.73623440      12.42262184       4.67481138  T        0
O        8.25191074       9.73819428       8.34792704  T        0
O       12.20857161      20.23231677       4.60978804  T        0
O       12.08004816       9.90177655       5.27781494  T        0
O        3.50065560      10.61574966       6.16268247  T        0
O        3.08620228       8.85699331       4.09725252  T        0
O       16.99534938      10.65559149       9.19458353  T        0
O       17.01088325      18.94633770       9.18766092  T        0
O        4.85251466      10.88926847       3.86610453  T        0
O        3.61378225      12.38481750       8.12693191  T        0
O       14.35069969      17.08330928      12.05166663  T        0
O       14.22529725      12.49820881      12.03680604  T        0
O        5.74948509      10.82578678       7.56753649  T        0
O        5.84806988      19.23856207       7.58160181  T        0
O       14.27273704       8.91945911       6.58354098  T        0
O        3.57106352       9.75113001       8.72192090  T        0
O        5.52184449      10.14977064       1.31399546  T        0
O        7.96388001      12.59893618       7.87260195  T        0
O        7.76657245      17.43167139       8.11800666  T        0
O       12.51494240       7.31258266       5.28153553  T        0
O        8.02253042      11.07986408       5.70611696  T        0
O        7.88279170      18.68654669       5.82520125  T        0
O       11.92846066       8.54377236       7.57120827  T        0
O        7.37600534      10.92778912       3.14052294  T        0
O        7.51686128      18.41447920       3.17178519  T        0
O       12.80912618       9.05501916      10.11746616  T        0
O        8.22459282       8.71952045       4.41874458  T        0
O       11.37728311      10.82242906       8.80070012  T        0
O       11.84069975      19.06848220       8.70163508  T        0
O        5.63829811      12.68065530       2.02502037  T        0
O       16.05462919      17.00194064       4.52754957  T        0
O       16.13353285      12.56059554       4.55709011  T        0
O       10.02547076      17.19397370       9.55513680  T        0
O        9.89581545      12.84861252       9.69801360  T        0
O       10.19622145       6.90174919       3.93057501  T        0
O        7.70119414      16.73890315      10.71961928  T        0
O        7.29498132      13.40195906      10.39719070  T        0
O       17.77574355      13.17376354       9.43163145  T        0
O       12.55563241       6.53063611       2.70840287  T        0
O       17.83940459      16.45428085       9.41817617  T        0
O        8.69611013      15.02228665       8.82235466  T        0
O       11.81602243       4.90163254       4.80207138  T        0
O       16.50781799      12.50064929       7.23171260  T        0
O       16.55182798      17.11024517       7.21117350  T        0
O       15.12638930      12.59493018       9.49980862  T        0
O       15.17439531      16.97890993       9.47655321  T        0
O       15.95589591      14.79742393       5.94299374  T        0
O        6.01340636       6.93862612       7.17564919  T        0
O       14.06741841      12.93356321       6.30622039  T        0
O       14.11215797      16.72313220       6.40415145  T        0
O        7.44996147       4.64009760       7.43567997  T        0
O       12.11486275      15.02153595       5.71685770  T        0
O        8.25056127       6.43654349       5.69833815  T        0
O       11.38919722      13.20456084       7.52991406  T        0
O       11.62875633      16.71157993       7.52875192  T        0
O        7.75266670       6.47714261       3.02827246  T        0
O       12.53389154      12.93534705       9.95605383  T        0
O       12.60179469      16.81651980      10.01965412  T        0
O       14.21632165      14.80435028      10.75165001  T        0
Si       8.61105584       8.42521405       9.20361955  T        0
Si      11.54864386      18.82465668       4.05356792  T        0
Si      11.52478659      10.92793588       4.12700507  T        0
Si       3.42490980      10.41644501       4.54800348  T        0
Si       4.14861997      10.88596129       7.65484358  T        0
Al       7.43829298      10.91342532       7.43130729  T        0
Si       7.44650974      18.87248772       7.38037091  T        0
Si      12.69951448       8.67781048       6.14591005  T        0
Si       8.39202900      10.32370617       4.26749478  T        0
Si       8.35331082      19.20918456       4.34181450  T        0
Si      11.58565156       9.21295208       9.02357915  T        0
Si       5.83801344      11.14865579       2.58882901  T        0
Si       8.51448938      16.61108995       9.30365803  T        0
Si       8.43973921      13.41313778       9.21909782  T        0
Si      11.75861081       6.41054756       4.15086268  T        0
Si      16.58050057      12.21486553       8.83907274  T        0
Si      16.62718337      17.38259733       8.82644554  T        0
Si      15.63167583      13.17727340       6.01279034  T        0
Si      15.68722057      16.39768831       6.01438177  T        0
Si       7.52613049       6.26578378       7.15919954  T        0
Al      12.41567067      13.28583541       6.01545682  T        0
Si      12.54102663      16.52828254       6.11079133  T        0
Si       8.61748314       7.13360612       4.27654617  T        0
Si      11.33065693      12.43068072       8.99181003  T        0
Si      11.53571643      17.48187297       9.00289907  T        0
Si      14.03694243      13.18488039      10.55138683  T        0
Si      14.10443762      16.41624776      10.56611380  T        0
O        8.39019413      20.07118483       8.00448564  T        0
O        8.07352486      20.83262021       4.35954400  T        0
H        1.81269882      11.30123319       3.09859993  F        0
H        7.07153747       8.87866318      10.98534327  F        0
H       13.03074803      18.74401529       2.26762503  F        0
H       13.03074804      10.85204106       2.26762503  F        0
H       12.34310542      20.30287261       5.56688324  F        0
H        3.60112680       8.06005012       4.30646574  F        0
H       16.64303307       9.81912404       8.84117322  F        0
H       16.64304187      19.77694965       8.84122497  F        0
H        4.03182275      12.92715973       8.82439874  F        0
H       14.40563884      18.04556895      12.19637069  F        0
H       14.40563885      11.55048737      12.19637067  F        0
H        5.06295559      18.75104696       7.26028496  F        0
H       15.03932990       8.88569483       5.99268334  F        0
H        4.11249823       9.08086468       9.18193973  F        0
H        5.72719027       9.20254625       1.33756862  F        0
H        6.55301950      18.28668004       3.13509397  F        0
H       13.54926599       8.42132791      10.11787432  F        0
H       11.52310955      19.83515307       9.21116341  F        0
H        5.53537813      12.95496052       1.09262639  F        0
H       15.87290964      17.87210703       4.12309272  F        0
H       15.87290964      11.72394929       4.12309273  F        0
H        6.74596320      16.92620537      10.74076342  F        0
H        6.74596321      12.66985099      10.74076342  F        0
H       18.05303808      13.25020103      10.35989921  F        0
H       13.35632228       7.06085325       2.51220488  F        0
H       18.05303809      16.34585533      10.35989921  F        0
H       11.61525895       4.01919395       4.45233654  F        0
H        5.18772305       6.48136951       6.94399129  F        0
H        7.92514400       4.01763560       6.85279547  F        0
H        6.78202892       6.52695113       2.93525138  F        0
H        8.32625906      20.60985804       8.81306681  F        0
H        8.66651872      21.47399316       3.93953912  F        0
Fe       8.39293063      13.04905924       5.82833196  T        0
Fe      10.29324985      15.01733237       6.94359784  T        1
O        8.93433515      14.75125582       5.71586590  T        2
