141
Lattice="24.397 0.0 0.0 0.0 24.397 0.0 0.0 0.0 24.397" Properties=species:S:1:pos:R:3:move_mask:L:1:tags:I:1 i=41 E=-6943.8331748197 regions="_JSON [\"Active\"]" n_terminators=32 energy=-955.6128495129394 pbc="F F F"
O       21.73234041       2.37840982       0.14752953  T        0
O       21.82665604       6.06490265       3.52151664  T        0
O       15.69924065       9.78867511       6.19995181  T        0
O       20.83433656      12.34240542       3.64334944  T        0
O       20.82813995       3.63613016      12.34750980  T        0
O       15.69356006       6.20071271       9.82573002  T        0
O       21.76638330       0.25898361       2.34692224  T        0
O       18.29009332       9.76166539       3.54931299  T        0
O       21.84097108       3.50878046       5.91768138  T        0
O       18.25604842       3.57570718       9.82589398  T        0
O       23.90406557       1.73927063       1.76584750  T        0
O       22.80119361       5.37098224       7.99005470  T        0
O       22.63475722       7.94428087       5.28302622  T        0
O       17.66857545      10.52513619       7.89382140  T        0
O       20.15005678      10.45443642       5.37345938  T        0
O       18.87015462       4.26261923      14.14797760  T        0
O       16.25559356       4.14625773      11.50973920  T        0
O       23.72801480       4.29640913       4.25310492  T        0
O       18.87491962      14.12925358       4.27655791  T        0
O       16.30240111      11.46120110       4.17123293  T        0
O       17.67600306       7.89677445      10.53404759  T        0
O       20.14963994       5.37439670      10.48027355  T        0
O       20.83251977       5.93763872       5.84127958  T        0
O       18.18391217       8.77965951       6.03391647  T        0
O       22.00441178      12.30651929       6.10287586  T        0
O       18.30311972       2.58901862      12.29010940  T        0
O       14.59931581       6.13397041      12.30095083  T        0
O       20.95402375      -0.10964418      -0.15662900  T        0
O       24.37549926       2.63159041       6.27571158  T        0
O       24.35443859       6.31650860       2.61727617  T        0
O       18.32271157      12.24789350       2.60269259  T        0
O       14.62187544      12.28155243       6.12978462  T        0
O       18.17460723       6.03143357       8.80859694  T        0
O       22.01800450       6.08152062      12.33286078  T        0
O       22.73805642       4.32866036       1.77386376  T        0
O       13.82466822      10.40864749       4.41438588  T        0
O       16.59212406       1.66328461      10.42457090  T        0
O       22.66524003       4.37949762      10.49292672  T        0
O       20.11030736       8.00236364       4.33510004  T        0
O       16.56319531       8.03781046       8.05269265  T        0
O       22.64178027      10.46496148       4.38983395  T        0
O       20.21141476       1.83422373      14.08520085  T        0
O       20.19881823      14.07646627       1.83605114  T        0
O       13.79812892       4.43034398      10.42585890  T        0
O       16.58347416      10.40210299       1.67111976  T        0
O       22.88685414       1.73375789       4.24838399  T        0
O       20.04900606       4.31952938       8.02418649  T        0
Al      23.34731868       3.04868417       0.74141188  T        0
Si      23.65504075       4.87783106       9.27713038  T        0
Si      21.36569663       7.06653450       4.77985336  T        0
Si      17.00197005       9.26586899       7.05655223  T        0
Si      21.38719038      11.41303444       4.87423460  T        0
Si      19.55923765       3.07629657      13.22264344  T        0
Si      15.11474207       5.22488576      11.02229149  T        0
Si      23.28176516       0.83721035       2.93218508  T        0
Si      19.17125758       9.26109982       4.82721471  T        0
Al      21.42783886       4.80693224       7.12338618  T        0
Si      23.59367767       9.23334797       4.88914425  T        0
Si      17.33323305       2.99898078      11.03200930  T        0
Si      23.24011619       3.03281899       5.18898482  T        0
Si      17.34994849      10.98887139       3.00034823  T        0
Si      19.17259877       4.81327141       9.27616337  T        0
Si      15.13154781      10.99544443       5.23046856  T        0
Si      19.55723860      13.21341901       3.08044440  T        0
Si      23.20078964       5.24005400       3.01391424  T        0
Si      21.39759817       4.86695813      11.41623096  T        0
Si      17.00314090       7.04087480       9.29173066  T        0
O       24.61681740       3.62260655       8.78849441  T        0
O       24.61736142       8.76062118       3.69744055  T        0
O       26.33263017       6.71328455       4.24134361  T        0
O       26.33972665       4.22424330       6.72614253  T        0
O       24.41036982       9.75977333       6.21093389  T        0
O       24.60201843       6.07627902       9.90376293  T        0
O       26.28590733       8.04777992       1.81623731  T        0
O       26.25835556       1.78316343       8.03909276  T        0
Si      25.42146564       7.46258237       3.08881651  T        0
Si      25.41316662       3.07750015       7.47295332  T        0
O       24.72268618       2.38776482      -2.87874949  T        0
O       26.21422467       1.77928654      -0.71322372  T        0
O       24.36284592      -0.18482964      -3.63852896  T        0
O       26.53338582       4.16770244      -2.06254258  T        0
Si      25.47133508       3.01132210      -1.53717248  T        0
O       24.69526077      -2.80091249       2.39184979  T        0
O       26.33391773      -0.66353306       1.89550295  T        0
O       24.37168571      -3.63090847      -0.15511957  T        0
O       26.25173803      -1.95800162       4.33046899  T        0
Si      25.41243327      -1.45508627       3.00704571  T        0
O       22.59485879       0.97540803      -1.98556793  T        0
O       24.37880736       3.59391061      -0.50922270  T        0
O       20.01451806       1.85045460      -1.76496335  T        0
O       22.75852080       1.74983542      -4.56555702  T        0
Si      23.61847870       1.23838130      -3.25792257  T        0
Si      21.33796952       1.25302316      -1.00099276  T        0
O       18.06097990      -3.41573491       2.51985241  T        0
O       20.98402861      -6.37687946       2.50025652  T        0
O       22.69009721      -1.82241837       0.94388497  T        0
O       20.00107310      -4.41547351       0.93896575  T        0
O       24.22895991      -0.39165524       3.41030974  T        0
O       18.31188367      -2.54075213      -0.06824798  T        0
O       21.86524623      -6.08620998      -0.08523584  T        0
O       20.09542279      -1.83360928       1.68650769  T        0
O       22.59470072      -4.36777475       1.68900046  T        0
Si      21.36696155      -0.92289099       1.20523877  T        0
Si      21.32857217      -5.33113615       1.26728376  T        0
Si      23.60218225      -3.16707967       1.22089663  T        0
Si      19.09511994      -3.09096258       1.27032576  T        0
H       17.22544067      10.92750153       8.65411313  F        0
H       19.36965545       4.82834000      14.75328662  F        0
H       19.36965547      14.75328399       4.82834093  F        0
H       17.22544070       8.65411150      10.92750362  F        0
H       21.54216027      12.99764967       6.60187561  F        0
H       15.05290857       6.89848394      12.70105939  F        0
H       15.05290853      12.70105704       6.89848521  F        0
H       21.54216028       6.60187434      12.99765198  F        0
H       13.44269068      10.71000821       3.56560630  F        0
H       15.76397057       1.24433790      10.70999951  F        0
H       19.78591983       1.24430349      14.73192035  F        0
H       19.78591980      14.73191782       1.24430354  F        0
H       13.44269039       3.56560577      10.71001015  F        0
H       15.76397041      10.70999753       1.24433830  F        0
H       26.95194123       7.17131746       4.82834527  F        0
H       26.95194124       4.82834452       7.17131883  F        0
H       25.19630608       9.34383456       6.60185911  F        0
H       25.19630604       6.60185806       9.34383627  F        0
H       26.93058105       7.58756876       1.24433203  F        0
H       26.93058086       1.24433163       7.58757011  F        0
H       26.95192867       1.27083937      -1.07240246  F        0
H       25.19622735      -0.50276655      -3.24494277  F        0
H       26.93057835       4.85486043      -1.48866112  F        0
H       26.95192866      -1.07240650       1.27083969  F        0
H       25.19622853      -3.24494603      -0.50276481  F        0
H       26.93057847      -1.48866524       4.85486109  F        0
H       19.54187345       1.48839893      -2.53384082  F        0
H       21.86315508       1.48839893      -4.85512307  F        0
H       17.77043326      -4.28747560       2.85995000  F        0
H       20.10952426      -6.62656664       2.85995001  F        0
H       17.49833238      -2.85478383      -0.50277915  F        0
H       21.54221602      -6.89866750      -0.50277915  F        0
Fe      20.52361548       4.33190837       4.46762267  T        0
Fe      20.80362919       2.32476902       1.94646904  T        1
O       19.85110235       3.19079786       3.21154147  T        2
