136
Lattice="20.102 0.0 0.0 0.0 19.731 0.0 0.0 0.0 13.253" Properties=species:S:1:pos:R:3:move_mask:L:1:tags:I:1 i=77 E=-3472.0240129048 regions="_JSON [\"Active\"]" n_terminators=36 energy=-894.4618046566189 pbc="F F F"
O       10.22425463      18.35678345       4.34199816  T        0
O       10.05980369      10.83668029       4.12315293  T        0
O        2.23142817      11.33134486       3.98053742  T        0
O        2.31988911      18.26685756       3.93218280  T        0
O       12.36373094      18.18632281       2.71043285  T        0
O       12.14734944      11.13314064       2.55946643  T        0
O       12.38600363      17.09900098       5.14233103  T        0
O       12.14631195      12.19850885       5.04414498  T        0
O        8.42007636       9.93682039       8.63017136  T        0
O       12.55192786      19.80115732       4.76239018  T        0
O       12.38251566       9.52750274       4.62901885  T        0
O        3.77301970      10.61054455       6.00906931  T        0
O        3.80155448      19.07795691       5.96337187  T        0
O        5.89044663      19.13501745      10.81894126  T        0
O        3.13869997       8.85766964       4.00479352  T        0
O        6.03706685      10.56611323      10.75594938  T        0
O        4.86583682      10.90396026       3.60140940  T        0
O        4.99063709      18.62405456       3.63879248  T        0
O        4.08574685      12.31659095       8.00873396  T        0
O        3.94816332      17.41308836       8.01825307  T        0
O        6.01397951      10.49675075       7.45139467  T        0
O        6.03220014      18.97313208       7.43015930  T        0
O        3.68547652       9.63958394       8.49723451  T        0
O        6.45834006       9.63738239       1.79397803  T        0
O        3.76192936      20.13702062       8.35199550  T        0
O        7.74352259      12.42422190       8.10952872  T        0
O        7.97503892      17.18519493       8.00730107  T        0
O        8.27004729      10.85270358       6.08741483  T        0
O        8.26830379      18.99012749       6.03558089  T        0
O        7.51802179      11.17694436       3.56242345  T        0
O        7.66841376      18.47580417       3.50171734  T        0
O        1.47491391      19.05034389      11.24744509  T        0
O        8.34946082       8.75783848       4.60077106  T        0
O        1.32156441      10.42690299      11.36165209  T        0
O       11.82075177      10.59881326       9.62051946  T        0
O       11.65190932      19.06385553       8.63363540  T        0
O        6.01865479      12.30106308       1.63332199  T        0
O        6.08130477      17.33166387       1.59155732  T        0
O       10.25855135      17.02236115       9.85033083  T        0
O        9.96336034      12.61790599       9.57740145  T        0
O        7.49615996      16.91029935      10.84903544  T        0
O        7.58585826      12.83082955      10.73419013  T        0
O        8.40985097      14.78825294       9.02370073  T        0
O        5.73411433      17.44200571      12.84389556  T        0
O        6.19366415      12.17023570      12.90883646  T        0
O        4.86405828      16.73348464      10.41687927  T        0
O        4.91083793      12.94556454      10.67896393  T        0
O        5.38308071      14.80860173       0.89016041  T        0
O        3.73011465      16.89625538       0.47079352  T        0
O        3.74277809      12.69748440       0.42372693  T        0
O       14.18004330      12.78137048       6.73877824  T        0
O       14.20682306      16.20580721       6.95075616  T        0
O       12.24785634      14.60678543       6.08557970  T        0
O        1.23765821      16.70617449      12.47860952  T        0
O        1.16408419      12.74680649      12.64604546  T        0
O       11.75995952      12.43785943       7.63910487  T        0
O       11.73414871      16.62941371       7.71442149  T        0
O        2.22084973      16.77341445       9.96096708  T        0
O        2.03832877      12.73255973      10.08620697  T        0
O       12.35851310      13.16948346      10.21395730  T        0
O       12.95825961      17.26323522      10.07877234  T        0
O        3.74452124      14.85786782       8.84551288  T        0
Si      11.86617767      18.38782760       4.26794346  T        0
Si      11.68532714      10.93570685       4.12130368  T        0
Si       3.52886746      10.41089076       4.39824536  T        0
Si       3.62128872      19.18267155       4.34280558  T        0
Si       4.40099292      10.74984941       7.50970610  T        0
Si       4.40043386      18.89872357       7.46707690  T        0
Si       7.59472459      10.88185212       7.55520693  T        0
Si       7.63952291      18.73390815       7.50881923  T        0
Si       8.55791341      10.39201383       4.55119506  T        0
Si       8.80159511      19.14129685       4.48973400  T        0
Si       6.18143179      11.02388265       2.64335142  T        0
Si       6.27725414      18.58586699       2.63770440  T        0
Al       8.63095085      16.53760726       9.59758498  T        0
Si       8.45336385      13.16328988       9.40028790  T        0
Si       6.05506617      17.53097641      11.22393726  T        0
Si       6.17693183      12.14158488      11.25814248  T        0
Si       5.31699319      16.39443740       0.48181161  T        0
Si       5.31864676      13.22501265       0.47841264  T        0
Si      12.59187040      13.03557156       6.36716108  T        0
Si      12.63342294      16.16050351       6.45027970  T        0
Si       1.14683705      17.45310469      11.01474560  T        0
Si       1.02606865      12.04122273      11.15357116  T        0
Si      11.49661334      12.17080848       9.23273149  T        0
Si      11.63057069      17.47873772       9.12078283  T        0
Si       3.68537683      16.46383229       9.32810953  T        0
Al       3.60636262      13.16426888       9.57242731  T        0
O        8.33289313      19.64513170       8.69642618  T        0
O        3.33843639      20.72987185       3.83372642  T        0
O        6.47276567      20.00666389       1.81850138  T        0
O        9.20176998      20.70649046       4.18742842  T        0
O        6.01633175      16.46400734      -1.00556549  T        0
O        6.08502181      13.13980575      -0.97454896  T        0
O       -0.55484737      12.19584197      10.69095557  T        0
O       -0.38295613      17.24493134      10.43562973  T        0
H        1.81269882      11.30123319       3.09859993  F        0
H        1.81269882      18.29482316       3.09859994  F        0
H       13.03074803      18.74401529       2.26762503  F        0
H       13.03074804      10.85204106       2.26762503  F        0
H        8.32625906       8.98649408       8.81306681  F        0
H       12.34310542      20.30287261       5.56688324  F        0
H       12.34314048       9.29328245       5.56696388  F        0
H        6.59189912      19.77694965      11.03822749  F        0
H        3.60112680       8.06005012       4.30646574  F        0
H        6.59189033       9.81912404      11.03827922  F        0
H        4.11249823       9.08086468       9.18193973  F        0
H        5.72719027       9.20254625       1.33756862  F        0
H        4.11250309      20.51523557       9.18186357  F        0
H        1.47196681      19.83515306      10.66828905  F        0
H        8.66651872       8.12235896       3.93953912  F        0
H        1.47196499       9.76092419      10.66834598  F        0
H       11.52310774       9.76092419       9.21110646  F        0
H       11.52310955      19.83515307       9.21116341  F        0
H        5.86807409      16.61444052      13.33116226  F        0
H        5.86807409      12.98161584      13.33116226  F        0
H        2.98936131      16.34896307       0.14601228  F        0
H        2.98936131      13.24709329       0.14601228  F        0
H       14.91456245      13.24933472       6.30897701  F        0
H       14.91456244      16.34672163       6.30897701  F        0
H        2.04221098      16.67409347      13.02389096  F        0
H        2.04221098      12.92196288      13.02389096  F        0
H       13.32025657      13.20375310      10.31771692  F        0
H       13.32025658      16.39230324      10.31771692  F        0
H        8.32625906      20.60985804       8.81306681  F        0
H        3.60112680      21.53630199       4.30646574  F        0
H        5.72719026      20.39380587       1.33756863  F        0
H        8.66651872      21.47399316       3.93953912  F        0
H        6.36643797      17.19386972      -1.54340896  F        0
H        6.36643797      12.40218664      -1.54340896  F        0
H       -1.04605969      13.03623234      10.65268580  F        0
H       -1.04605969      16.55982401      10.65268579  F        0
Fe       7.45613510      15.34114840       7.26983794  T        0
Fe       4.68782223      14.08057992       7.15239765  T        1
O        5.70830578      15.51517190       6.18545144  T        2
O        6.39029201      14.17137679       6.02528619  T        3
