132
Lattice="20.102 0.0 0.0 0.0 19.731 0.0 0.0 0.0 13.253" Properties=species:S:1:pos:R:3:move_mask:L:1:tags:I:1 i=77 E=-3472.0240129048 regions="_JSON [\"Active\"]" n_terminators=32 energy=-885.6426573402165 pbc="F F F"
O       10.27184023       8.51519267       9.55138144  T        0
O        9.92404120      18.89285271       4.02148674  T        0
O       10.03404584      10.50967827       3.70711329  T        0
O        2.23699589      11.35340646       3.97502303  T        0
O        7.91464258       8.46103371      10.72631697  T        0
O       12.09850539      18.58950631       2.51588004  T        0
O       12.50433653      11.36528410       2.91416596  T        0
O        8.32189020       7.02544478       8.46145449  T        0
O       11.95565445      17.54744728       5.01608966  T        0
O       11.33549870      12.21475373       5.17455634  T        0
O        8.25454128       9.69063304       8.30751946  T        0
O       12.25091462      20.18478491       4.60980574  T        0
O       12.27396834       9.69641491       5.00695621  T        0
O        3.55253988      10.59422718       6.14361975  T        0
O        3.12304777       8.86784529       4.05581217  T        0
O       16.95729579      10.66784700       9.20407778  T        0
O       17.02155040      18.93890821       9.15818600  T        0
O        4.91325821      10.87573088       3.84730600  T        0
O        3.72123956      12.42424527       8.04556184  T        0
O       14.34300594      17.08418578      12.05790541  T        0
O       14.37880820      12.52015093      12.08512380  T        0
O        5.84955890      10.85565787       7.41857411  T        0
O        5.85327871      19.22763887       7.58635776  T        0
O       14.28031837       8.66877015       6.55279224  T        0
O        3.69875227       9.86482084       8.77021189  T        0
O        5.60168377      10.16261214       1.29413421  T        0
O        8.18335626      12.53634363       7.81545698  T        0
O        7.77280717      17.41571880       8.11211185  T        0
O       12.38315415       7.08722694       5.40649590  T        0
O        8.30189887      10.93595606       5.67362109  T        0
O        7.89119242      18.68561106       5.82733747  T        0
O       11.88151078       8.66054795       7.47780469  T        0
O        7.44641225      10.93549502       3.13243524  T        0
O        7.51727472      18.41152507       3.17617185  T        0
O       12.88749084       9.12709407      10.00260511  T        0
O        8.21490396       8.64466931       4.24041424  T        0
O       11.36495069      10.87506778       8.82258559  T        0
O       11.84827704      19.06501621       8.71324842  T        0
O        5.72128744      12.68547535       2.01318649  T        0
O       16.04222228      16.99772592       4.52763255  T        0
O       16.18123454      12.53332187       4.57463743  T        0
O       10.02588521      17.17890804       9.55302634  T        0
O        9.88351118      12.87231813       9.82526332  T        0
O       10.13280458       6.73677109       3.98709646  T        0
O        7.69786469      16.72169984      10.71778346  T        0
O        7.20741300      13.38172846      10.25392492  T        0
O       17.70402809      13.20123012       9.45284305  T        0
O       12.40236852       7.07195046       2.71052422  T        0
O       17.84105866      16.45016071       9.41696218  T        0
O        8.70781476      15.00849572       8.81196100  T        0
O       12.05116427       4.78609555       4.03728301  T        0
O       16.44527099      12.51345506       7.24457985  T        0
O       16.54327878      17.06980235       7.20938921  T        0
O       15.05650686      12.59492999       9.47999632  T        0
O       15.17574397      16.98485296       9.48376624  T        0
O       15.84151580      14.78121438       5.93861860  T        0
O        5.98284696       6.89304996       7.32259039  T        0
O       14.01930636      12.80272901       6.18642895  T        0
O       14.09035659      16.77700846       6.39704508  T        0
O        7.48806504       4.62829606       7.47663321  T        0
O       12.15631519      14.97986921       5.75058781  T        0
O        8.23982195       6.54039104       5.82281633  T        0
O       11.47741318      13.33262103       7.74800973  T        0
O       11.62415712      16.71867517       7.52936743  T        0
O        7.68238726       6.25521300       3.18357516  T        0
O       12.51079331      12.87857274      10.17959077  T        0
O       12.60376375      16.80480312      10.01769380  T        0
O       14.22826064      14.80975123      10.76663899  T        0
Si       8.64781171       8.44901473       9.24196802  T        0
Si      11.54800100      18.80045448       4.04928662  T        0
Si      11.56089263      10.91179563       4.18360411  T        0
Si       3.47617973      10.42064016       4.52431708  T        0
Si       4.25603313      10.91578919       7.60760935  T        0
Al       7.55149473      10.91680444       7.34586312  T        0
Si       7.45124079      18.86263333       7.38291745  T        0
Si      12.70524940       8.54188611       6.08638831  T        0
Si       8.48222474      10.24160034       4.18221960  T        0
Si       8.35338623      19.21338615       4.34177433  T        0
Si      11.60512291       9.26174377       8.97643019  T        0
Si       5.90562750      11.15399663       2.57952641  T        0
Si       8.51136269      16.59351240       9.30407455  T        0
Si       8.45781619      13.37617478       9.18702445  T        0
Si      11.73098115       6.39910121       4.06151562  T        0
Si      16.52954071      12.22380775       8.85079358  T        0
Si      16.62733005      17.37301765       8.81977480  T        0
Si      15.58940875      13.14873241       5.99189124  T        0
Si      15.65271630      16.39576342       6.01015882  T        0
Si       7.51463342       6.26719976       7.26704575  T        0
Al      12.37513673      13.27472872       6.17946600  T        0
Si      12.52778709      16.50882450       6.10449112  T        0
Si       8.57250588       7.05238228       4.32035345  T        0
Si      11.33083160      12.46556644       9.14809698  T        0
Si      11.53782473      17.48111103       9.00912224  T        0
Si      14.05451113      13.18821051      10.61675066  T        0
Si      14.10765214      16.41873737      10.57203300  T        0
O        8.40081700      20.05095569       8.01893068  T        0
O        8.06907987      20.83619925       4.35973253  T        0
H        1.81269882      11.30123319       3.09859993  F        0
H        7.07153747       8.87866318      10.98534327  F        0
H       13.03074803      18.74401529       2.26762503  F        0
H       13.03074804      10.85204106       2.26762503  F        0
H       12.34310542      20.30287261       5.56688324  F        0
H        3.60112680       8.06005012       4.30646574  F        0
H       16.64303307       9.81912404       8.84117322  F        0
H       16.64304187      19.77694965       8.84122497  F        0
H        4.03182275      12.92715973       8.82439874  F        0
H       14.40563884      18.04556895      12.19637069  F        0
H       14.40563885      11.55048737      12.19637067  F        0
H        5.06295559      18.75104696       7.26028496  F        0
H       15.03932990       8.88569483       5.99268334  F        0
H        4.11249823       9.08086468       9.18193973  F        0
H        5.72719027       9.20254625       1.33756862  F        0
H        6.55301950      18.28668004       3.13509397  F        0
H       13.54926599       8.42132791      10.11787432  F        0
H       11.52310955      19.83515307       9.21116341  F        0
H        5.53537813      12.95496052       1.09262639  F        0
H       15.87290964      17.87210703       4.12309272  F        0
H       15.87290964      11.72394929       4.12309273  F        0
H        6.74596320      16.92620537      10.74076342  F        0
H        6.74596321      12.66985099      10.74076342  F        0
H       18.05303808      13.25020103      10.35989921  F        0
H       13.35632228       7.06085325       2.51220488  F        0
H       18.05303809      16.34585533      10.35989921  F        0
H       11.61525895       4.01919395       4.45233654  F        0
H        5.18772305       6.48136951       6.94399129  F        0
H        7.92514400       4.01763560       6.85279547  F        0
H        6.78202892       6.52695113       2.93525138  F        0
H        8.32625906      20.60985804       8.81306681  F        0
H        8.66651872      21.47399316       3.93953912  F        0
Fe       9.26135572      12.73694365       5.75584850  T        0
Fe      10.26570361      15.08290754       7.08378942  T        1
O        9.15490863      14.55537725       5.72752762  T        2
