141
Lattice="19.123 0.0 0.0 0.0 14.277 0.0 0.0 0.0 7.5465" Properties=species:S:1:pos:R:3:move_mask:L:1:tags:I:1 i=128 E=-2603.9155142701 regions="_JSON [\"Active\"]" n_terminators=32 energy=-955.3435907186393 pbc="F F F"
O        6.09322443       1.12885061       1.48792162  T        0
O       15.73481506       8.41898291       5.84649348  T        0
O       12.98114765       1.11454248       1.50819930  T        0
O        3.51228959       8.48054835       5.85942284  T        0
O        6.13880115      13.14108879       1.53644245  T        0
O       15.81356262       5.72127618       5.86607409  T        0
O       12.85315918      13.03377685       2.08527637  T        0
O        3.49361028       5.79277906       5.86256544  T        0
O       13.17874576      13.15352659       6.13890155  T        0
O        3.42631802       5.79864982       1.66153519  T        0
O        6.23682712      13.11261695       5.86337021  T        0
O       15.46807158       5.80965938       1.97925037  T        0
O       12.95766257       1.15008654       5.95306809  T        0
O        3.43821318       8.49118122       1.67529281  T        0
O        6.21484086       1.15743183       5.90111784  T        0
O       15.67703643       8.48604000       1.77272204  T        0
O        7.23470528       3.41483585       2.46439186  T        0
O       17.17265264      10.70037872       6.14602146  T        0
O       11.92210768       3.45286324       2.46237241  T        0
O        1.99314887      10.71452353       6.14154416  T        0
O        7.27993011      10.83395066       2.46005504  T        0
O       17.15619991       3.38080860       6.08547350  T        0
O       11.85850401      10.56316320       2.29936954  T        0
O        1.97871653       3.55040505       6.10476167  T        0
O       11.97092536      11.00211436       4.98216815  T        0
O        1.98494651       3.50975943       1.43700487  T        0
O        7.24125856      10.70921868       5.09388451  T        0
O       17.09964892       3.81239057       1.23953359  T        0
O       11.89727492       3.51204326       5.09088255  T        0
O        2.00921636      10.78919853       1.44465220  T        0
O        7.23091823       3.54957843       5.09367075  T        0
O       17.04835264      10.77646679       1.36060099  T        0
O        6.68788442       3.22225830      -0.05091543  T        0
O       16.12964276      10.13714594       3.81250216  T        0
O       12.48620481       3.25933247      -0.04362153  T        0
O        3.06542839      10.12226329       3.78392315  T        0
O        6.69044049      11.06005784      -0.04626255  T        0
O       16.13751245       4.02103111       3.77227353  T        0
O       12.68303316      11.33579844      -0.07462970  T        0
O        3.06658253       4.16645311       3.76883524  T        0
O        4.65384249       3.39934506       1.76499795  T        0
O       14.48980294      10.80234741       5.80330265  T        0
O       14.51141286       3.29969497       1.77361579  T        0
O        4.65191130      10.92591396       5.78604017  T        0
O        4.68173772      10.87969826       1.80013355  T        0
O       14.47813826       3.38213352       5.76909762  T        0
O       14.46249888      10.86665123       1.85747402  T        0
O        4.64113731       3.35092752       5.77512640  T        0
O       11.44052426       8.55823874       3.87871362  T        0
O        7.89048637       8.46688051       3.68059641  T        0
O       11.26256912       5.77276438       3.69449371  T        0
O       17.30617127      13.11958102      -0.02915926  T        0
O        7.89324609       5.77277110       3.65877776  T        0
O        9.59284895      10.50156906       3.79649163  T        0
O        9.57052019       3.74221771       3.75047739  T        0
O       13.62036586       6.96734082       5.06053056  T        0
O        5.75153884       7.11264232       5.21382240  T        0
O        5.64497159       7.12804607       2.39115474  T        0
O       13.27959468       7.38903537       2.20501466  T        0
O       14.48564750       7.06573699      -0.13805578  T        0
O        5.00158721       7.14565752      -0.09682315  T        0
Si       6.12940555       2.78477442       1.43311874  T        0
Si      15.86759844       9.99764261       5.43094400  T        0
Si      12.99611069       2.76708266       1.44107623  T        0
Si       3.31585784      10.04499559       5.40728469  T        0
Si       6.15944458      11.48515337       1.45175679  T        0
Si      15.87616091       4.14961582       5.39103897  T        0
Si      13.01071411      11.49962983       1.51703667  T        0
Si       3.30599971       4.23322922       5.39298175  T        0
Si      13.05465594      11.50916963       6.12060040  T        0
Si       3.29233404       4.23706133       2.14242412  T        0
Si       6.16632098      11.46880997       6.07742270  T        0
Si      15.80568277       4.21225109       2.18137704  T        0
Si      12.98387767       2.80068467       6.09225338  T        0
Si       3.30784888      10.05321212       2.15817740  T        0
Si       6.15067232       2.80523515       6.08283112  T        0
Si      15.85322021      10.05534682       2.20994952  T        0
Si      11.18368930      10.17415086       3.83130018  T        0
Si       7.97344758      10.11520671       3.75532551  T        0
Si      11.16961174       4.11356186       3.75885149  T        0
Si      17.56555216      11.47814867      -0.05092603  T        0
Si       7.96482537       4.10922450       3.74753570  T        0
Si      14.84980061       7.04297219       6.09727525  T        0
Si       4.43508787       7.13079197       6.12679599  T        0
Si       4.36876598       7.14217756       1.42691725  T        0
Si      14.75063881       7.17168329       1.46321068  T        0
Al      12.46680243       7.08883359       3.82085603  T        0
Al       6.66367651       7.13551309       3.76889084  T        0
O       19.16222044      11.19420422      -0.30812912  T        0
O        6.68653550       3.19999951       7.58826313  T        0
O       12.44812652       3.21863226       7.58998644  T        0
O        6.70061840      11.09403860       7.59054375  T        0
O       12.45814138      11.05386473       7.58373090  T        0
O       14.18618744       7.04840417       7.60819711  T        0
O        5.03234355       7.12755661       7.66435739  T        0
O       15.52904642       8.46566647      -2.16147150  T        0
O       15.73559581       5.85729545      -2.26396823  T        0
O       12.80111165      13.08403073      -2.12982696  T        0
O       16.75423097      10.73728619      -1.28057749  T        0
O       11.55323207      10.71720850      -2.37371164  T        0
O       16.30716291      10.41403802      -3.86083742  T        0
O       14.25260328      10.79401745      -2.16982766  T        0
O       13.21235690       7.01249952      -2.33499983  T        0
Si      15.71799517      10.08400944      -2.35998418  T        0
Si      12.85469511      11.48478462      -1.72104759  T        0
Si      14.75415077       7.08095002      -1.74983123  T        0
H        5.61083456       0.52083913       2.07985367  F        0
H       13.50938118       0.51971906       2.07492992  F        0
H        5.61112307      13.75835362       2.07975607  F        0
H       13.50958039      13.75682243       2.07498241  F        0
H       13.51084140      13.75504172       5.44776650  F        0
H        5.62495998      13.75277707       5.44935724  F        0
H       13.50975252       0.52161770       5.44778410  F        0
H        5.62509051       0.52255101       5.44942550  F        0
H       17.28974254      11.12548174       7.01862795  F        0
H        1.83343022      11.12554006       7.01950242  F        0
H       17.28979000       3.14560285       7.02339196  F        0
H        1.81954193       3.15353441       6.98813474  F        0
H        1.83183800       3.14857954       0.53722786  F        0
H       17.29134854       3.14797220       0.53999843  F        0
H        1.83154049      11.12909684       0.54034962  F        0
H        6.35952436       2.97904956      -0.93427223  F        0
H       12.76076393       2.97683097      -0.93375646  F        0
H        6.36236324      11.29726414      -0.93275871  F        0
H       16.56020813      13.76127004      -0.00066979  F        0
H        4.51175007       7.13509558      -0.92932085  F        0
H       20.08739461      11.34211663       0.00099186  F        0
H        6.35949513       2.97597070       8.47938261  F        0
H       12.76321398       2.97604733       8.47995589  F        0
H        6.35946036      11.30224636       8.48133548  F        0
H       12.76333233      11.30075111       8.47967776  F        0
H       14.61405599       7.13800201       8.47661577  F        0
H        4.50898861       7.14016697       8.47499567  F        0
H       15.75636517       4.89339805      -2.09021006  F        0
H       13.51084140      13.75504172      -2.09873350  F        0
H       11.39521725      10.28762784      -3.24237523  F        0
H       15.92569105      10.11584057      -4.70878458  F        0
H       12.88191441       7.13773895      -3.23957932  F        0
Fe       9.43084936       6.99089125       2.94908761  T        0
Fe      11.66200334       8.51143901       1.49269395  T        1
O       10.10026298       7.62855679       1.33107848  T        2
