138
Lattice="20.102 0.0 0.0 0.0 19.731 0.0 0.0 0.0 13.253" Properties=species:S:1:pos:R:3:move_mask:L:1:tags:I:1 i=77 E=-3472.0240129048 regions="_JSON [\"Active\"]" n_terminators=34 energy=-923.5405672212036 pbc="F F F"
O        9.91061844      18.90066414       3.93420363  T        0
O       10.08596937      10.59376419       3.89142448  T        0
O        2.29338846      11.34686380       3.94512170  T        0
O        2.17791356      18.27386464       4.00090607  T        0
O       12.08950739      18.60914568       2.48196588  T        0
O       12.40290998      11.43169942       2.74430388  T        0
O       11.91812523      17.45296377       4.91984911  T        0
O       11.49420447      12.37750912       5.12973582  T        0
O        8.57258174       9.51225698       8.03168956  T        0
O       12.24870722      20.13035254       4.61817178  T        0
O       12.54853188       9.80692919       4.76968968  T        0
O        3.81911110      10.57151686       5.96169001  T        0
O        3.61791239      18.91733988       6.09657381  T        0
O        6.06152362      19.02662700      10.71546459  T        0
O        3.22586713       8.85879731       3.90299371  T        0
O        5.98208217      10.50174441      10.71472853  T        0
O       16.92555781      10.67293192       9.21722234  T        0
O       16.89186902      18.93391989       9.25470885  T        0
O        4.92687125      10.89776098       3.57482400  T        0
O        4.83390409      18.85401194       3.74054344  T        0
O        4.30752752      12.16921394       8.05240098  T        0
O        3.95106389      17.34154296       8.18901401  T        0
O       14.48451066      17.08301727      12.05301746  T        0
O       14.43904456      12.51681732      12.08924448  T        0
O        6.12804132      10.40361292       7.24642805  T        0
O        5.91390544      19.07942074       7.43660969  T        0
O        3.84793642       9.43539227       8.31056656  T        0
O        6.10670125      10.09191064       1.26000895  T        0
O        3.62973135      20.01649180       8.49730363  T        0
O        7.97250267      12.18399571       8.08097483  T        0
O        7.89517841      17.43739192       8.06112604  T        0
O        8.39302531      10.98476566       5.86183606  T        0
O        8.01062438      18.79824893       5.79530847  T        0
O        7.53929406      11.12374209       3.32436932  T        0
O        7.37080403      18.38360491       3.23342936  T        0
O        8.16150033       8.74854279       4.47480812  T        0
O       11.63281983      10.59293091       8.71051106  T        0
O       11.14557749      19.01061685       9.56064677  T        0
O        6.07784379      12.68449508       1.85384873  T        0
O        5.47297334      16.92153881       2.02046667  T        0
O       16.34229118      17.11940386       4.53392337  T        0
O       16.18051889      12.55034460       4.54506620  T        0
O       10.29428089      16.51004632       9.04017972  T        0
O        9.92750955      12.43450220       9.83329110  T        0
O        7.67905544      16.80202741      10.81107124  T        0
O        7.41539750      12.78606297      10.62462669  T        0
O       17.71868699      13.19713644       9.44685618  T        0
O       17.91272287      16.50806614       9.41180582  T        0
O        8.53611747      14.62425793       9.01608836  T        0
O        6.01278365      17.44307834      12.84540484  T        0
O        6.04763235      12.15853727      12.84233445  T        0
O       16.46098444      12.50961912       7.22820757  T        0
O       16.56849281      17.11566436       7.21301161  T        0
O        5.02069657      16.60910695      10.49270167  T        0
O        4.71646542      12.79947505      10.60735528  T        0
O       15.06632395      12.62578623       9.46176142  T        0
O       15.22747467      16.82176686       9.46299080  T        0
O       16.08466326      14.81598232       5.89493963  T        0
O       14.07376959      13.05244788       6.18128604  T        0
O       14.21383016      16.73727891       6.05007710  T        0
O       12.06468895      15.18148900       6.35069140  T        0
O       11.47171071      13.05912915       7.78611229  T        0
O       12.20251933      17.58054112       7.53284388  T        0
O        2.34456768      16.26247121      10.15431828  T        0
O        2.22373211      12.69991463       9.52469425  T        0
O       12.53865229      12.68393080      10.21342850  T        0
O       12.67459778      16.87748477      10.08023738  T        0
O        3.98795419      14.71209010       8.91724559  T        0
O       14.13994403      14.77572989      10.79702937  T        0
Si      11.52791383      18.76373547       4.02093128  T        0
Si      11.66432187      11.04939740       4.15708704  T        0
Si       3.57373675      10.40577803       4.35829533  T        0
Si       3.43273150      19.21062190       4.50511429  T        0
Si       4.50274802      10.66496752       7.43884243  T        0
Si       4.31212615      18.82925286       7.57251373  T        0
Si       7.69402434      10.74072905       7.38559666  T        0
Si       7.53377024      18.84213564       7.36079575  T        0
Si       8.53360210      10.33023536       4.31737523  T        0
Si       8.33328386      19.21241370       4.26197944  T        0
Si       6.10858451      11.18067251       2.49752487  T        0
Si       5.87338237      18.41975351       2.56340798  T        0
Al       8.48462712      16.41214311       9.32424115  T        0
Si       8.46280490      13.05340457       9.40753075  T        0
Si       6.24086613      17.44380717      11.20589763  T        0
Si       6.05107090      12.09006692      11.20051687  T        0
Si      16.53672414      12.23385646       8.83637234  T        0
Si      16.63799155      17.35955540       8.82799963  T        0
Si      15.67064990      13.22039470       5.96731695  T        0
Si      15.81077957      16.42306008       5.93139445  T        0
Al      12.41771439      13.42778947       6.31521763  T        0
Si      12.60856373      16.71638999       6.19338847  T        0
Si      11.40719066      12.17189649       9.16138482  T        0
Si      11.59179771      17.51299750       9.05151731  T        0
Si       3.82318909      16.27865986       9.42619194  T        0
Si       3.78854459      13.12725439       9.28636773  T        0
Si      14.05533145      13.15722855      10.62148824  T        0
Si      14.14192930      16.39437936      10.59523302  T        0
O        8.35261398      20.16894662       7.94465792  T        0
O        3.00727421      20.77700441       4.18591808  T        0
O        5.78140207      19.42782215       1.25670512  T        0
O        7.97316377      20.80218005       3.98492049  T        0
H        1.81269882      11.30123319       3.09859993  F        0
H        1.81269882      18.29482316       3.09859994  F        0
H       13.03074803      18.74401529       2.26762503  F        0
H       13.03074804      10.85204106       2.26762503  F        0
H        8.32625906       8.98649408       8.81306681  F        0
H       12.34310542      20.30287261       5.56688324  F        0
H       12.34314048       9.29328245       5.56696388  F        0
H        6.59189912      19.77694965      11.03822749  F        0
H        3.60112680       8.06005012       4.30646574  F        0
H        6.59189033       9.81912404      11.03827922  F        0
H       16.64303307       9.81912404       8.84117322  F        0
H       16.64304187      19.77694965       8.84122497  F        0
H       14.40563884      18.04556895      12.19637069  F        0
H       14.40563885      11.55048737      12.19637067  F        0
H        4.11249823       9.08086468       9.18193973  F        0
H        5.72719027       9.20254625       1.33756862  F        0
H        4.11250309      20.51523557       9.18186357  F        0
H        8.66651872       8.12235896       3.93953912  F        0
H       11.52310774       9.76092419       9.21110646  F        0
H       11.52310955      19.83515307       9.21116341  F        0
H        5.53537813      12.95496052       1.09262639  F        0
H        5.53537813      16.64109584       1.09262638  F        0
H       15.87290964      17.87210703       4.12309272  F        0
H       15.87290964      11.72394929       4.12309273  F        0
H       18.05303808      13.25020103      10.35989921  F        0
H       18.05303809      16.34585533      10.35989921  F        0
H        5.86807409      16.61444052      13.33116226  F        0
H        5.86807409      12.98161584      13.33116226  F        0
H        1.73086688      16.98843832      10.35624453  F        0
H        1.73086689      12.60761804      10.35624453  F        0
H        8.32625906      20.60985804       8.81306681  F        0
H        3.60112680      21.53630199       4.30646574  F        0
H        5.72719026      20.39380587       1.33756863  F        0
H        8.66651872      21.47399316       3.93953912  F        0
Fe      10.17246739      15.05400930       7.50512907  T        0
Fe       9.49371419      12.77328099       5.72563413  T        1
O        9.22721636      14.51341380       5.98826211  T        2
