142
Lattice="19.123 0.0 0.0 0.0 14.277 0.0 0.0 0.0 7.5465" Properties=species:S:1:pos:R:3:move_mask:L:1:tags:I:1 i=128 E=-2603.9155142701 regions="_JSON [\"Active\"]" n_terminators=34 energy=-948.759714486248 pbc="F F F"
O        5.97838905       1.08728878       1.38038326  T        0
O       15.53703913       8.49570756       5.83611380  T        0
O       13.13448752       1.09597223       1.39321577  T        0
O        3.58983668       8.47585458       5.82289169  T        0
O        5.99694160      13.18871715       1.39295352  T        0
O       15.54988498       5.81880061       5.85461111  T        0
O       13.09578335      13.17874363       1.40958708  T        0
O        3.57911360       5.79918760       5.83723368  T        0
O       12.92958404      13.16822212       5.96687267  T        0
O        3.40928972       5.79927413       1.64221927  T        0
O        6.16043619      13.16449891       6.01223751  T        0
O       15.68772928       5.79820454       1.69113821  T        0
O       13.00568452       1.11718195       6.03204400  T        0
O        3.41963877       8.48151442       1.68755978  T        0
O        6.14929428       1.10915048       6.02442284  T        0
O       15.67985486       8.48292045       1.67219122  T        0
O        7.24482738       3.29066565       2.34585286  T        0
O       17.09446225      10.71316693       6.14721309  T        0
O       11.90841926       3.32052835       2.34786887  T        0
O        1.99144755      10.64743858       6.17568245  T        0
O        7.22867207      10.96275045       2.35035620  T        0
O       17.13432644       3.63531237       6.18859752  T        0
O       11.89918534      10.98898929       2.48301068  T        0
O        2.00521069       3.59746046       6.13156605  T        0
O       11.81123701      10.84099886       5.13008838  T        0
O        1.97874074       3.50720853       1.43879722  T        0
O        7.21661353      10.85863214       5.04473213  T        0
O       17.17296767       3.55111532       1.42796767  T        0
O       11.88784141       3.38822824       5.04095751  T        0
O        1.96632822      10.75699386       1.43881313  T        0
O        7.25675682       3.38509686       5.04113083  T        0
O       17.13789210      10.76258241       1.43815958  T        0
O        6.42543336       3.08263368      -0.22661464  T        0
O       16.06083751      10.12563068       3.77624442  T        0
O       12.89426855       3.12358365      -0.17829407  T        0
O        3.02983997      10.12155662       3.78607767  T        0
O        6.40945300      11.18783566      -0.21780663  T        0
O       16.16722277       4.20872022       3.80685389  T        0
O       12.44097606      11.05598947      -0.04827319  T        0
O        3.04822997       4.18149500       3.76803468  T        0
O        4.66081447       3.43199001       1.79060180  T        0
O       14.43559580      10.94575391       5.72955371  T        0
O       14.52148496       3.37782168       1.92444396  T        0
O        4.63618907      10.95314447       5.75399003  T        0
O        4.64152610      10.86781630       1.80508116  T        0
O       14.48200335       3.35696940       5.71248715  T        0
O       14.46752836      10.87739448       1.77626495  T        0
O        4.66537558       3.34445756       5.72372030  T        0
O       11.29308239       8.60328575       3.61233630  T        0
O        7.78720905       8.60616372       3.56707231  T        0
O       11.31504545       5.65326384       3.58579655  T        0
O        7.80582952       5.64224744       3.57301371  T        0
O        9.53545309      10.47379551       3.61102312  T        0
O        9.57064468       3.77576329       3.57809244  T        0
O       13.27312506       7.14121939       5.22162236  T        0
O        5.85836090       7.12392408       5.22234177  T        0
O        5.63381168       7.11603602       2.38812131  T        0
O       13.45785757       7.14265006       2.38448194  T        0
O       14.12336337       7.10265691      -0.09386612  T        0
O        4.99509154       7.17197013      -0.09413461  T        0
Si       6.05637956       2.73654251       1.33134872  T        0
Si      15.78065408      10.05273448       5.39402105  T        0
Si      13.12714709       2.74392622       1.38516812  T        0
Si       3.31502345      10.03343566       5.40155444  T        0
Si       6.04744865      11.53865581       1.33983842  T        0
Si      15.82423056       4.26721574       5.41113402  T        0
Si      13.02235592      11.52799993       1.40976359  T        0
Si       3.32749905       4.24600229       5.38489277  T        0
Si      12.95839116      11.51994524       6.10680118  T        0
Si       3.27631415       4.24315848       2.14246888  T        0
Si       6.12402921      11.51407248       6.10296340  T        0
Si      15.88572261       4.25102403       2.19104373  T        0
Si      13.01046469       2.76926388       6.09382154  T        0
Si       3.26628560      10.04285866       2.16144661  T        0
Si       6.13935111       2.76095869       6.09613843  T        0
Si      15.83309107      10.04295319       2.15059771  T        0
Si      11.19901643      10.26395955       3.75387148  T        0
Si       7.86547142      10.27062139       3.68535019  T        0
Si      11.24238371       3.98748960       3.68269368  T        0
Si       7.89683933       3.97733850       3.67696445  T        0
Si      14.60836763       7.15379251       6.12436820  T        0
Si       4.51728265       7.13552128       6.11717093  T        0
Si       4.35394712       7.14107185       1.42676886  T        0
Si      14.74636531       7.13600916       1.43265486  T        0
Al      12.40651953       7.13598957       3.73614245  T        0
Al       6.70310024       7.11925343       3.72394661  T        0
O        6.67617048       3.20852255       7.58318819  T        0
O       12.47458184       3.22422593       7.57874410  T        0
O        6.67277655      11.06818970       7.58540387  T        0
O       12.42225511      11.08771805       7.59431268  T        0
O       14.06089286       7.16550209       7.68181758  T        0
O        5.05844630       7.14239375       7.67700255  T        0
O        6.24346688      13.00691326      -2.24640570  T        0
O       12.87749976       1.26454271      -2.21374440  T        0
O        6.23991982       1.26878870      -2.25774720  T        0
O        6.87270899      10.40964210      -2.77479925  T        0
O       11.85800012       3.77405903      -2.41019594  T        0
O        6.86124827       3.86410703      -2.79234271  T        0
O        4.39193810      11.14442057      -2.02235875  T        0
O       14.60391160       3.23625121      -2.31094606  T        0
O        4.38970819       3.12955842      -2.00962594  T        0
Si       6.01145646      11.42908648      -1.81074798  T        0
Si      13.07330703       2.85320956      -1.79232935  T        0
Si       6.01121675       2.84503340      -1.81598620  T        0
H        5.61083456       0.52083913       2.07985367  F        0
H       13.50938118       0.51971906       2.07492992  F        0
H        5.61112307      13.75835362       2.07975607  F        0
H       13.50958039      13.75682243       2.07498241  F        0
H       13.51084140      13.75504172       5.44776650  F        0
H        5.62495998      13.75277707       5.44935724  F        0
H       13.50975252       0.52161770       5.44778410  F        0
H        5.62509051       0.52255101       5.44942550  F        0
H       17.28974254      11.12548174       7.01862795  F        0
H        1.83343022      11.12554006       7.01950242  F        0
H       17.28979000       3.14560285       7.02339196  F        0
H        1.81954193       3.15353441       6.98813474  F        0
H        1.83183800       3.14857954       0.53722786  F        0
H       17.29134854       3.14797220       0.53999843  F        0
H        1.83154049      11.12909684       0.54034962  F        0
H       17.29120144      11.12876736       0.54010345  F        0
H       12.76174962      11.29928001      -0.93393629  F        0
H       14.60982961       7.13673871      -0.92783774  F        0
H        4.51175007       7.13509558      -0.92932085  F        0
H        6.35949513       2.97597070       8.47938261  F        0
H       12.76321398       2.97604733       8.47995589  F        0
H        6.35946036      11.30224636       8.48133548  F        0
H       12.76333233      11.30075111       8.47967776  F        0
H       14.61405599       7.13800201       8.47661577  F        0
H        4.50898861       7.14016697       8.47499567  F        0
H        5.62495998      13.75277707      -2.09714276  F        0
H       13.50975252       0.52161770      -2.09871590  F        0
H        5.62509051       0.52255101      -2.09707450  F        0
H        7.72914317      10.28615024      -3.24155184  F        0
H       11.39412799       3.98861071      -3.24188863  F        0
H        7.72584421       3.99139588      -3.24276680  F        0
H        3.92376286      10.29502607      -2.09159850  F        0
H       15.19955093       3.97637223      -2.09238403  F        0
H        3.91490408       3.97370239      -2.09385012  F        0
Fe       9.56633423       5.81965913       2.45924328  T        0
Fe       9.55428617       8.44923076       2.46336475  T        0
O        9.60340711       7.84760396       0.71653756  T        0
O        9.53312076       6.43315648       0.71612425  T        0
