142
Lattice="19.123 0.0 0.0 0.0 14.277 0.0 0.0 0.0 7.5465" Properties=species:S:1:pos:R:3:move_mask:L:1:tags:I:1 i=128 E=-2603.9155142701 regions="_JSON [\"Active\"]" n_terminators=34 energy=-949.2812531305849 pbc="F F F"
O        6.12420730       1.18342871       1.58483671  T        0
O       15.68524206       8.51239503       5.83483633  T        0
O       12.80743210       1.18856564       1.96906033  T        0
O        6.05132418      13.12473763       1.48143588  T        0
O       15.65788707       5.83065108       5.79873100  T        0
O       13.26962403      13.18265305       1.32327099  T        0
O       13.11467375      13.19009312       6.13849557  T        0
O        3.34425064       5.77519725       1.72051563  T        0
O       15.65921253       5.76736459       1.76702757  T        0
O       13.24105094       1.06458386       6.20905469  T        0
O        3.36588627       8.47904644       1.84398789  T        0
O       15.74649936       8.46399505       1.80302276  T        0
O        7.12129746       3.58959746       2.34302707  T        0
O       17.16494410      10.75425970       6.12270015  T        0
O       11.56482394       3.51842848       2.14911974  T        0
O        7.05996537      10.83012093       2.56668073  T        0
O       17.15928768       3.60899443       6.16911100  T        0
O       11.92823594      11.05525034       2.41565960  T        0
O       11.85758762      10.94239187       5.16872627  T        0
O        1.88147676       3.53790618       1.43573984  T        0
O        7.43637536      10.61842328       5.26415222  T        0
O       16.80303709       3.38403989       1.34558310  T        0
O       11.95067466       3.16458531       5.03921383  T        0
O        1.88863489      10.70374060       1.42154178  T        0
O        7.44478558       3.22529056       5.03769347  T        0
O       17.19081561      10.72280664       1.42627821  T        0
O        6.21540705       3.16355584      -0.14309692  T        0
O       16.09458629      10.19270900       3.78754356  T        0
O       12.66259489       2.86916050      -0.16033624  T        0
O        2.80799410      10.29392676       3.82060857  T        0
O        6.56741416      10.99135536      -0.02411923  T        0
O       16.02551186       4.08009001       3.81958278  T        0
O       12.49119903      11.00414625      -0.06008990  T        0
O        2.73500978       4.18822745       3.83034657  T        0
O        4.52289816       3.35718274       1.95450378  T        0
O       14.47881661      10.91000057       5.79900431  T        0
O       14.23207682       3.49943249       1.93836568  T        0
O        4.54227265      10.89079242       1.80283147  T        0
O       14.47501202       3.42896844       5.90256408  T        0
O       14.51380234      10.84108017       1.72051973  T        0
O       11.52163952       8.41435099       3.64485081  T        0
O       17.32614983       1.12782424      -0.08584904  T        0
O        7.52736637       8.37716268       3.66235538  T        0
O       11.60356335       5.82148304       3.73774425  T        0
O        7.23179434       5.72289531       4.00180665  T        0
O        9.44368956       9.98495556       3.58508357  T        0
O        9.40281499       4.17185116       3.52814954  T        0
O       13.48382778       7.21967308       5.07381509  T        0
O        5.60089829       7.59060840       5.17392902  T        0
O        5.51868104       7.07043967       2.49058719  T        0
O       13.48676112       7.15348355       2.37532234  T        0
O       14.42738405       7.18798541      -0.13083998  T        0
O        4.88557208       7.18311014      -0.02960327  T        0
Si       5.97765297       2.81519973       1.44011328  T        0
Si      15.83363658      10.09615155       5.40308987  T        0
Si      12.86705323       2.75861916       1.45706787  T        0
Si       6.02513358      11.47506859       1.45251125  T        0
Si      15.81354628       4.23334198       5.44500195  T        0
Si      13.05840682      11.53565223       1.39131605  T        0
Si      12.98946896      11.53116850       6.14158646  T        0
Si       3.15607970       4.21580871       2.23149968  T        0
Si      15.69374544       4.19581299       2.22376122  T        0
Si      13.02162741       2.70562320       6.15866569  T        0
Si       3.18326670      10.07616765       2.22662282  T        0
Si      15.87199441      10.06593565       2.16997030  T        0
Al      11.25360731      10.22118552       3.74833135  T        0
Si      17.54878740       2.77421815       0.01102189  T        0
Si       7.81396258      10.04681848       3.77559349  T        0
Al      11.18978467       4.11650074       3.85318921  T        0
Si       7.77206296       4.17961138       3.73495959  T        0
Si      14.76999409       7.17970790       6.09316053  T        0
Si       4.23128296       7.13353601       1.48086871  T        0
Si      14.83818656       7.15394181       1.45549934  T        0
Si      12.57167358       7.12735055       3.72894471  T        0
Si       6.42748256       7.13574001       3.82362173  T        0
O       19.14081937       3.12531069       0.18820199  T        0
O       12.38655228       3.16226515       7.60639482  T        0
O       12.44302757      11.04025603       7.61116457  T        0
O       14.14672543       7.15309385       7.61925101  T        0
O       15.91947778       8.41336440      -2.06428126  T        0
O       15.64898696       5.80343471      -2.05993452  T        0
O       12.87466649       1.22688153      -2.31120201  T        0
O        6.26245012       1.26248364      -2.12229927  T        0
O        7.54429826       3.36035507      -5.24631024  T        0
O       11.58013422       3.46464961      -5.29610783  T        0
O       16.92604707       3.53132250      -1.31916527  T        0
O       11.74924935       3.57477822      -2.57534841  T        0
O        7.14709458       3.72484604      -2.56881420  T        0
O       16.35913287       3.91597740      -3.86538387  T        0
O       14.37944649       3.46456924      -2.08908627  T        0
O        4.46017929       3.17809997      -2.22758137  T        0
O       11.34253398       8.40138533      -3.88431816  T        0
O       11.76556069       5.82465287      -3.99411583  T        0
O        7.23367679       5.81911324      -4.28869373  T        0
O        9.50790402       4.34109462      -3.81842640  T        0
O       13.50415975       7.31914218      -2.62195108  T        0
O       13.41412379       7.53438764      -5.32885568  T        0
Si      15.82150923       4.19606824      -2.32778141  T        0
Si      12.93251605       2.78642213      -1.77967935  T        0
Si       6.01907327       2.84901392      -1.75473577  T        0
Si      11.15260104       4.30241471      -3.93281862  T        0
Si       7.85812305       4.32448202      -3.94552506  T        0
Si      14.85804750       7.19720924      -1.71219850  T        0
Si      12.53481714       7.26825791      -3.94755228  T        0
H        5.61083456       0.52083913       2.07985367  F        0
H       13.50938118       0.51971906       2.07492992  F        0
H        5.61112307      13.75835362       2.07975607  F        0
H       13.50958039      13.75682243       2.07498241  F        0
H       13.51084140      13.75504172       5.44776650  F        0
H       13.50975252       0.52161770       5.44778410  F        0
H       17.28974254      11.12548174       7.01862795  F        0
H       17.28979000       3.14560285       7.02339196  F        0
H        1.83183800       3.14857954       0.53722786  F        0
H        6.67998430      11.11604137       5.63469228  F        0
H        1.83154049      11.12909684       0.54034962  F        0
H        6.67493943       3.16061899       5.63310767  F        0
H       17.29120144      11.12876736       0.54010345  F        0
H        3.19647477      10.11404518       4.70477207  F        0
H        6.36236324      11.29726414      -0.93275871  F        0
H       12.76174962      11.29928001      -0.93393629  F        0
H        3.19279804       4.15795734       4.69750931  F        0
H       16.56036088       0.51548555      -0.00076213  F        0
H        4.87489857       7.13453431       5.62990583  F        0
H        4.51175007       7.13509558      -0.92932085  F        0
H       20.08726577       2.93486642      -0.00052988  F        0
H       12.76321398       2.97604733       8.47995589  F        0
H       12.76333233      11.30075111       8.47967776  F        0
H       14.61405599       7.13800201       8.47661577  F        0
H       15.75671561       9.37610020      -2.09181162  F        0
H       13.50975252       0.52161770      -2.09871590  F        0
H        5.62509051       0.52255101      -2.09707450  F        0
H        6.67730558       3.15591219      -5.64675051  F        0
H       12.44565577       3.15588527      -5.64616185  F        0
H       15.92661844       4.15901570      -4.70770176  F        0
H        3.91490408       3.97370239      -2.09385012  F        0
H       11.31595404       9.37380971      -3.78414466  F        0
H        6.99637682       6.62282801      -3.78455725  F        0
H       14.25080708       7.13791561      -5.64139813  F        0
Fe       9.66743298       7.92930419       2.94367257  T        0
Fe      10.13716760       4.85892626       1.52595406  T        1
O        9.04712112       6.61599021       1.63642016  T        2
O       10.06987247       6.51780291       0.57452345  T        3
