133
Lattice="20.102 0.0 0.0 0.0 19.731 0.0 0.0 0.0 13.253" Properties=species:S:1:pos:R:3:move_mask:L:1:tags:I:1 i=77 E=-3472.0240129048 regions="_JSON [\"Active\"]" n_terminators=34 energy=-879.6505121936655 pbc="F F F"
O       11.85785317      16.84585286       4.74940454  T        0
O       11.80657153      12.75129393       4.74763116  T        0
O        8.32320763       9.36781669       7.90762577  T        0
O        6.64037747      18.82620898      11.20912079  T        0
O        6.91274552      10.73316616      10.99733510  T        0
O       17.01868000      10.69425057       9.07204752  T        0
O       16.29788437      18.97124337       8.82485983  T        0
O       14.33127688      17.32522587      11.97178396  T        0
O       14.04098947      11.95069666      11.91610983  T        0
O        5.79362178      10.19333043       7.32135757  T        0
O        5.81510802      18.88815872       6.65356753  T        0
O       16.12902728      19.02237767      13.17109161  T        0
O       16.12051076      10.76066667      13.21972694  T        0
O       14.19438035      19.89139555      11.44541343  T        0
O       14.73688475       9.31855426      11.45148544  T        0
O        7.66101500      12.02820811       7.75807419  T        0
O        7.92350465      17.41441609       7.56519597  T        0
O        7.75209078      10.46014078       5.53177186  T        0
O        8.25608630      19.45143429       5.74286326  T        0
O       11.84774595      10.63801881       9.47769131  T        0
O       11.34796044      18.92778255       9.23969285  T        0
O       16.36808711      17.31133906       4.75365691  T        0
O       16.22867976      12.54258634       4.50513077  T        0
O       10.14281359      16.46916538       9.32191057  T        0
O        9.83661247      12.46678134       9.18826257  T        0
O        7.40277752      16.39302551      10.27149822  T        0
O        7.43217084      13.12608768      10.23658251  T        0
O       17.75907441      13.22643167       9.43142520  T        0
O       17.81225566      17.12447188       9.82578387  T        0
O        8.38197134      14.58417400       8.33421184  T        0
O        5.99294624      16.50280604      12.43623020  T        0
O        6.03239336      12.95046532      12.40579737  T        0
O       16.55811366      12.60464202       7.18677893  T        0
O       16.59017008      16.79433676       7.34941659  T        0
O        4.83523867      17.35518646      10.08720464  T        0
O        4.84019014      12.22525328      10.06149443  T        0
O       15.10553349      12.66321647       9.39091443  T        0
O       15.15825175      16.65740476       9.53072358  T        0
O       15.93469111      14.80301153       5.74381438  T        0
O       14.12453412      12.83520793       6.15513995  T        0
O       14.16778702      16.75004129       6.15266556  T        0
O       12.31115076      14.78308403       6.31501365  T        0
O       11.80665972      12.37351034       7.38519815  T        0
O       11.93573130      17.15019635       7.42443083  T        0
O       12.26619390      13.18878357       9.90443930  T        0
O       12.54321536      16.63957608      10.03384429  T        0
O       13.97042540      14.80445631      11.12304810  T        0
Si      14.59485733      18.81630803      12.60045637  T        0
Si      14.61598495      10.57068710      12.54092134  T        0
Si       7.40383778      10.51693588       7.13936959  T        0
Si       7.42685836      18.86807580       7.04240586  T        0
Al       8.44851956      16.28601702       8.74702177  T        0
Si       8.36203193      13.05328317       8.79918418  T        0
Si       6.20865548      17.29346083      10.99832434  T        0
Si       6.23017309      12.21320632      10.94920166  T        0
Si      16.55488764      12.26343462       8.80224471  T        0
Si      16.48581844      17.35836370       8.87910943  T        0
Si      15.71297026      13.19131996       5.92508052  T        0
Si      15.76133193      16.40258106       5.99004891  T        0
Si      12.53748759      13.17694314       6.15831434  T        0
Si      12.58334480      16.37543179       6.14605756  T        0
Si      11.42689319      12.13625973       8.95496067  T        0
Si      11.47468598      17.34878240       8.96218808  T        0
Al      13.96929702      13.09001829      10.62305215  T        0
Si      14.07057341      16.35060514      10.69246709  T        0
O       14.02272644      20.73875829      15.98760760  T        0
O        9.94807351      21.15804188       9.23257216  T        0
O        7.60483274      21.19419179      10.50861140  T        0
O       17.96491295      21.09608133       9.23422627  T        0
O        7.86522536      22.68804139       8.40762695  T        0
O        7.74463635      19.97633971       8.20056956  T        0
O        6.62789814      20.92930589      12.88591165  T        0
O       16.50877413      21.04716203       7.07748284  T        0
O        4.87684954      20.85030169      10.88003938  T        0
O       15.27681464      21.30143566       9.47466910  T        0
O       11.50072884      20.77577282       7.20386916  T        0
O       12.62061523      21.17785992       9.67651753  T        0
O       13.93911733      22.58431734      11.45299718  T        0
Si       8.32030732      21.24269305       9.04075749  T        0
Si       6.41330507      20.46027150      11.33103179  T        0
Si      16.50668989      20.58464796       8.65853501  T        0
Si      11.38866806      20.52025666       8.82513784  T        0
Si      14.02183694      21.22930965      10.52040619  T        0
O       12.08446778      18.76682125      15.96033706  T        0
O       13.66893975      19.04031156      13.91852157  T        0
O       13.64952232      10.06343227      13.79340671  T        0
O       14.64201065      18.18872437      16.35857127  T        0
O        6.06896427      12.16245299      14.91678817  T        0
O        6.06556300      17.31096975      14.98759876  T        0
O        5.44210618      14.74306483      14.27547925  T        0
O        3.69467507      16.79879366      13.89572740  T        0
O        3.70081374      12.71074446      13.79066706  T        0
Si      13.61924021      19.19512824      15.55116802  T        0
Si       5.28056860      16.34441442      13.92496115  T        0
Si       5.28771377      13.15620229      13.87946688  T        0
H       11.77741499      17.76721957       4.45015374  F        0
H       11.77741500      11.82883679       4.45015372  F        0
H        8.32625906       8.98649408       8.81306681  F        0
H        6.59189033       9.81912404      11.03827922  F        0
H       16.64303307       9.81912404       8.84117322  F        0
H        5.06295559      10.84500939       7.26028495  F        0
H        5.06295559      18.75104696       7.26028496  F        0
H       16.97340650      18.78964577      12.75613404  F        0
H       16.97340651      10.80641058      12.75613404  F        0
H       14.16364097       9.08086469      10.69751272  F        0
H        8.50665683      10.58475679       4.91774357  F        0
H        8.50665683      19.01129957       4.91774358  F        0
H       11.52310774       9.76092419       9.21110646  F        0
H       15.87290964      17.87210703       4.12309272  F        0
H       15.87290964      11.72394929       4.12309273  F        0
H       18.05303808      13.25020103      10.35989921  F        0
H       18.05303809      16.34585533      10.35989921  F        0
H        4.26454119      16.60174699       9.87579966  F        0
H        4.26454119      12.99430937       9.87579967  F        0
H       13.65226955      21.53630200      15.57301841  F        0
H       18.28958667      21.16688107      10.15436837  F        0
H        7.84356087      22.87259074       7.45668424  F        0
H        6.01931354      20.68412461      13.59787507  F        0
H       16.07044730      20.68412712       6.28158542  F        0
H        4.52133035      21.07133226      10.00226603  F        0
H       12.20788616      20.61981982       6.55602502  F        0
H       14.56690736      22.82060840      12.16034191  F        0
H       11.86384156      18.29482316      16.78088422  F        0
H       13.51650676      10.58100877      14.61047976  F        0
H       15.58095514      18.39037197      16.50370227  F        0
H        5.82176689      11.72394931      15.75639142  F        0
H        5.82176689      17.87210706      15.75639142  F        0
H        2.98936131      16.34896307      13.39901228  F        0
H        2.98936131      13.24709329      13.39901228  F        0
Fe      11.32431303      14.90163963      10.64555136  T        0
Fe       8.20651196      14.85015818      11.37635422  T        1
O        9.99791049      15.40813993      12.18750123  T        2
O        9.90919992      13.94849675      11.86920845  T        3
