136
Lattice="24.397 0.0 0.0 0.0 24.397 0.0 0.0 0.0 24.397" Properties=species:S:1:pos:R:3:move_mask:L:1:tags:I:1 i=41 E=-6943.8331748197 regions="_JSON [\"Active\"]" n_terminators=24 energy=-953.389203042646 pbc="F F F"
O        9.62122729      14.68237072      -0.18435476  T        0
O       12.25632775       9.47958155       2.64367341  T        0
O       14.92189479      20.85586864       6.43621279  T        0
O        9.71693811      18.65724629       3.41210155  T        0
O       15.65214991       9.83726881       6.55436800  T        0
O       21.07382941      12.27118747       3.52530977  T        0
O       20.90060289      15.85006639       0.12652449  T        0
O       18.26637194      20.95569454       2.61135268  T        0
O       14.77348577       9.57624944       0.01295856  T        0
O        9.59015871      12.17002522       2.65638730  T        0
O       20.76065518      14.88655972       6.46984541  T        0
O       18.35791370       9.44289634       3.44169214  T        0
O        9.71352588      15.59267248       6.49336846  T        0
O       12.02692555      20.88945628       3.42827591  T        0
O       15.88796013      20.85271740      -0.11753723  T        0
O       20.98815084      18.15911681       2.53675247  T        0
O       11.46360234      13.95685272       1.93554382  T        0
O       14.02775349      11.32242355       1.91607124  T        0
O       18.92825983      16.53578087       1.89561340  T        0
O       16.69140207      18.93197614       1.85526729  T        0
O       10.28134934      10.18926667       0.96237585  T        0
O       11.11640292      16.62204828       4.49997855  T        0
O       13.87217538      19.27618997       4.58517795  T        0
O       19.17863568      13.91945283       4.49369248  T        0
O       16.59746580      11.21752443       4.44168378  T        0
O       20.21678615      20.16576359       0.95073617  T        0
O       12.06601411      11.98007920       3.61696476  T        0
O       18.54117492      18.48450904       3.63968054  T        0
O       12.25828959       8.68209154       0.07869038  T        0
O        8.76830593      12.14110463       0.09344056  T        0
O       12.28970247      14.75458853       6.07403649  T        0
O       12.29062388      18.24885381       2.73658871  T        0
O       15.85092241      18.28982723       6.16974646  T        0
O       18.24497044      15.84482067       6.13638224  T        0
O       18.45873560      12.06114407       2.76346617  T        0
O       14.74187888      12.32284326       6.06101804  T        0
O       18.38576825      21.81356047       0.05365622  T        0
O       21.86179641      18.32163677       0.01667739  T        0
O       10.51132265      16.62570526       1.84542413  T        0
O       14.05321580      10.39884872       4.42119136  T        0
O       20.02162418      14.07087079       1.94124071  T        0
O       16.45464133      20.01792922       4.34784642  T        0
O       16.54970625      10.44960572       1.83536611  T        0
O       10.45946808      13.99256526       4.41663695  T        0
O       14.04397559      20.03906752       1.99118327  T        0
O       20.06966522      16.42214021       4.35650968  T        0
O       20.11668965      22.68470357       1.95625258  T        0
O        7.76872276      10.41956565       1.93460129  T        0
O       22.76501814      20.03175406       1.89547445  T        0
O       10.52115982       7.63999985       1.84865822  T        0
Al      10.85697205      15.20316263       0.89105489  T        0
Si      13.08444416      10.80185514       3.15941142  T        0
Si      19.61947725      15.29740101       0.96435464  T        0
Si      17.47620103      19.62988848       3.14033772  T        0
Si      15.24053011      10.84541500       0.93747731  T        0
Si      10.90676042      13.04101176       3.13934140  T        0
Al      15.30194606      19.61945575       0.90668878  T        0
Si      19.66929966      17.42701011       3.14934416  T        0
Si       9.09853743      11.23646697       1.40594269  T        0
Si      10.88748472      15.24247414       5.37528649  T        0
Si      13.08072260      19.65525424       3.20287891  T        0
Si      19.56921709      15.23484814       5.38918727  T        0
Si      17.47457212      10.79968424       3.12864820  T        0
Si      21.46724106      19.19720269       1.34268174  T        0
Si      11.31746893       9.00332985       1.38326251  T        0
Si      15.27404839      10.93061056       5.37492598  T        0
Si      19.66689074      13.05762077       3.18978053  T        0
Si      15.25386123      19.60859443       5.40112315  T        0
Si      10.83805609      17.48740299       3.14602038  T        0
Si      19.24769804      21.42197794       1.37342659  T        0
O       14.81288929      12.11489998      -2.59089935  T        0
O       15.84012920      18.41540735      -2.46214305  T        0
O       12.05330997      14.73604947      -2.49212278  T        0
O       18.33605519      15.72961872      -2.59329450  T        0
O       14.03854829      13.99279749      -0.87365696  T        0
O       16.55408528      16.48602227      -0.75047905  T        0
O       13.04398352      10.18844613      -1.96132480  T        0
O       10.07557246      12.90177422      -2.10483737  T        0
O       17.64301084      20.40923724      -2.07840975  T        0
O       20.25079427      17.47290758      -1.91011984  T        0
O       12.33662324      15.83426519      -0.02400137  T        0
O       15.66811690      12.08695114      -0.03821773  T        0
O       18.41588848      14.85219177      -0.03759345  T        0
O       14.72981362      18.14631051       0.02623116  T        0
O       12.27546386      12.24912358      -3.43798531  T        0
O       18.29004060      18.25605432      -3.49039429  T        0
O       16.55807128      13.94281065      -1.72135377  T        0
O       14.04044094      10.48816409      -4.47767929  T        0
O       22.74443340      16.44341426      -1.72169548  T        0
O       16.48028060      19.99306551      -4.47938341  T        0
O        7.54621177      13.74531007      -1.58942503  T        0
O       14.09887901      16.43266887      -1.92296593  T        0
O       10.52867723      13.99397576      -4.52125259  T        0
O       16.62386786      22.89299009      -1.62057772  T        0
O       20.05691287      16.41592378      -4.41696774  T        0
O       14.04498563       7.69520037      -1.69749766  T        0
Si      15.26473062      13.01148609      -1.30641463  T        0
Si      15.26884957      17.40186691      -1.33612064  T        0
Si      13.10387811      15.23334177      -1.35675556  T        0
Si      17.47267292      15.21117243      -1.32199171  T        0
Si      13.51676042       9.03160549      -0.89563277  T        0
Si      11.21625766      13.45545656      -3.12557739  T        0
Si      17.11654908      21.48494978      -0.93568326  T        0
Si      19.25072167      16.99480916      -3.11563296  T        0
Si       9.01477011      13.39204266      -0.93111977  T        0
Si      13.51991212      11.24431693      -3.11667897  T        0
Si      21.45513686      17.03101135      -0.89375714  T        0
Si      17.07688723      19.29136033      -3.12067756  T        0
H       14.01033133      21.15748981       6.62630180  F        0
H        9.33839640      18.82463975       4.28720704  F        0
H       16.48559112       9.33840607       6.62628668  F        0
H       21.15750258      11.67126816       4.28721909  F        0
H       21.15748967      14.01033142       6.62630180  F        0
H       18.82463962       9.33839646       4.28720704  F        0
H        9.33840600      16.48559124       6.62628668  F        0
H       11.67126808      21.15750273       4.28721909  F        0
H       12.70105695      15.05290863       6.89848520  F        0
H       15.44301084      17.79487314       6.89846715  F        0
H       17.79487301      15.44301094       6.89846715  F        0
H       15.05290853      12.70105704       6.89848521  F        0
H       20.83112530      23.15241223       1.48839475  F        0
H        7.34352333       9.66479174       1.48837704  F        0
H       23.15241204      20.83112542       1.48839475  F        0
H        9.66479163       7.34352337       1.48837704  F        0
H       13.68673308       9.66480596      -4.85513656  F        0
H       23.15240156      16.80916493      -2.53384338  F        0
H       16.80913871      20.83112323      -4.85512183  F        0
H        7.34352146      13.68671965      -2.53387758  F        0
H        9.66480591      13.68673318      -4.85513656  F        0
H       16.80916481      23.15240172      -2.53384338  F        0
H       20.83112308      16.80913882      -4.85512183  F        0
H       13.68671953       7.34352150      -2.53387758  F        0
Fe      16.67515528      16.86223073       1.53373084  T        0
Fe      13.42707755      16.87873567       1.38467419  T        1
O       15.15638557      15.58491668       1.69741553  T        2
O       14.93025512      16.63752109       2.71260205  T        3
