139
Lattice="20.102 0.0 0.0 0.0 19.731 0.0 0.0 0.0 13.253" Properties=species:S:1:pos:R:3:move_mask:L:1:tags:I:1 i=77 E=-3472.0240129048 regions="_JSON [\"Active\"]" n_terminators=34 energy=-927.0499307523461 pbc="F F F"
O       10.05197236       8.61163051       9.23867256  T        0
O        9.91326555      18.86913820       3.97895778  T        0
O        9.92942131      11.10605033       3.76239924  T        0
O        7.81065817       8.33744892      10.65581487  T        0
O       12.10516796      18.54103814       2.50688486  T        0
O       12.41050637      11.05298983       2.76030037  T        0
O        8.02319606       7.23039360       8.22568742  T        0
O       11.85107747      17.36552528       4.91811014  T        0
O       11.82328305      12.62430037       4.87309000  T        0
O        7.75556511       9.89766391       8.52118102  T        0
O       12.32494616      20.03852204       4.63487002  T        0
O       11.95924835       9.97250996       5.14134461  T        0
O       16.72150641       9.22088884       7.01934318  T        0
O       13.49892401      10.89999360       0.42892046  T        0
O       13.93527046       8.89872676       2.24632264  T        0
O        4.55897548      11.43873718       3.86648074  T        0
O        4.92374191      18.39884082       4.22403715  T        0
O       15.07338594      11.25509160       2.61803693  T        0
O       16.30162184       7.23830319       5.28747687  T        0
O        5.90705129      10.93439883       6.79467119  T        0
O        5.84744106      19.27989389       7.51846252  T        0
O       14.21036219       8.80845724       6.03135249  T        0
O        5.34062186       9.67300769       2.09550021  T        0
O       16.16970435       9.81299569       4.54075075  T        0
O        7.76651129      12.50197213       8.04094349  T        0
O        7.66794268      17.38936637       8.10572363  T        0
O       12.02417587       7.34921715       5.55343093  T        0
O        8.36111186      10.78615245       6.06218486  T        0
O        7.97199970      18.65579780       5.86399401  T        0
O       12.09694163       9.05013664       7.58967749  T        0
O        7.27972174      11.18807918       3.34732447  T        0
O        7.37251091      18.64344224       3.26304647  T        0
O       12.57077107       8.37485871      10.12708753  T        0
O       17.68832865      11.59025653       3.17885048  T        0
O        8.40767349       8.60267406       4.03394182  T        0
O       11.55555633      10.79180894       9.52573132  T        0
O       11.97443107      19.01762697       9.48891035  T        0
O        5.69393699      12.39756565       1.68930249  T        0
O        5.55613024      17.28255381       1.86976979  T        0
O       16.18522587      17.06935214       4.56632747  T        0
O       15.91667824      12.50413118       4.82149551  T        0
O        9.96988498      17.15662192       9.43825991  T        0
O        9.81324827      12.80934112       9.76221439  T        0
O       10.19601944       6.60585577       3.71555505  T        0
O        7.71149667      16.81412287      10.71122583  T        0
O        7.30009384      13.43451544      10.52861036  T        0
O       12.76274692       6.66890068       3.10015885  T        0
O        8.52380764      14.97840164       8.83614433  T        0
O       11.89766779       4.83790685       4.89414339  T        0
O       16.75213980      12.82607234       7.36657923  T        0
O       13.55939798       6.77206169       0.61607472  T        0
O       16.53382434      17.27476553       7.20510194  T        0
O       15.40927153       6.63320026       2.49602636  T        0
O        5.47963312      14.88457717       0.79207733  T        0
O       16.00280730      14.90357968       5.95023421  T        0
O        3.80678971      16.76611625      -0.17795712  T        0
O        6.00904630       6.72881688       6.49200394  T        0
O        3.83686765      12.95030386      -0.22896643  T        0
O       14.15984627      13.11293414       6.70710389  T        0
O       14.08771994      16.74562607       6.26949802  T        0
O        7.61293826       4.71221568       7.46447199  T        0
O       12.06507361      14.99702792       5.90791542  T        0
O        8.47678620       6.51231787       5.68593004  T        0
O       11.54079461      12.79714591       7.76978643  T        0
O       11.83128294      17.13868027       7.56822879  T        0
O        7.68218482       6.19729571       3.09712864  T        0
O       12.34730564      13.20844189      10.35883023  T        0
O       12.36817028      16.46474243      10.15020376  T        0
Si       8.42031814       8.53132829       9.13519537  T        0
Si      11.53330545      18.71981078       4.03914307  T        0
Si      11.54293513      11.16756960       4.13241051  T        0
Si      13.75998910      10.50670281       2.00134405  T        0
Si      15.81607673       8.76450032       5.73365297  T        0
Si       7.45692605      11.03209199       7.36987177  T        0
Si       7.43808548      18.84558708       7.39877682  T        0
Si      12.57932278       8.78373706       6.07692025  T        0
Al       8.46720664      10.25591834       4.43053169  T        0
Si       8.37401136      19.25578770       4.40903157  T        0
Si      11.56655581       9.21798308       9.12201043  T        0
Si       5.71599790      11.14055064       2.74446562  T        0
Si       5.79013957      18.58583786       2.83322080  T        0
Si      16.20726649      11.27588759       3.80610920  T        0
Si       8.46262304      16.55818319       9.26838664  T        0
Si       8.37095907      13.40393687       9.27524387  T        0
Si      11.69875226       6.35548768       4.29661964  T        0
Si      13.91688394       7.26804530       2.13661274  T        0
Si       5.30562003      16.49112266       0.46714988  T        0
Si       5.33176820      13.31515260       0.37011426  T        0
Si      15.68179292      13.32092372       6.21537963  T        0
Si      15.69280589      16.49093843       6.02185464  T        0
Si       7.52928545       6.29177659       6.98486383  T        0
Al      12.47820989      13.28363107       6.43450339  T        0
Si      12.48020844      16.57393123       6.20263917  T        0
Si       8.66758991       7.01859166       4.13951776  T        0
Si      11.34221489      12.40500969       9.32127900  T        0
Si      11.53639980      17.46006698       9.15449566  T        0
O        8.40825320      20.02387348       8.03879825  T        0
O        5.28945098      19.97944391       2.10189378  T        0
O        8.21470161      20.88608716       4.55817458  T        0
O        6.42698827      17.08162374      -0.57926671  T        0
O        6.45121905      13.01495733      -0.79553414  T        0
H        7.07153747       8.87866318      10.98534327  F        0
H       13.03074803      18.74401529       2.26762503  F        0
H       12.34310542      20.30287261       5.56688324  F        0
H       16.63692148       9.14969546       7.98396390  F        0
H       14.08297195      10.81847671      -0.34490677  F        0
H        4.05829635      10.79936776       4.41071281  F        0
H        4.05829635      18.79668859       4.41071282  F        0
H       16.07046274       6.80354447       4.42856960  F        0
H        5.06295559      10.84500939       7.26028495  F        0
H        5.06295559      18.75104696       7.26028496  F        0
H        5.72719027       9.20254625       1.33756862  F        0
H       13.54926599       8.42132791      10.11787432  F        0
H       18.17502404      10.93300163       2.66186473  F        0
H       11.52310955      19.83515307       9.21116341  F        0
H       15.87290964      17.87210703       4.12309272  F        0
H        6.74596320      16.92620537      10.74076342  F        0
H        6.74596321      12.66985099      10.74076342  F        0
H       11.61525895       4.01919395       4.45233654  F        0
H       16.41758072      12.40218664       8.16986141  F        0
H       14.23421140       6.74908840      -0.07819396  F        0
H       16.41758072      17.19386972       8.16986141  F        0
H       15.83774429       6.73639486       3.37716865  F        0
H        2.98936131      16.34896307       0.14601228  F        0
H        5.18772305       6.48136951       6.94399129  F        0
H        2.98936131      13.24709329       0.14601228  F        0
H        7.92514400       4.01763560       6.85279547  F        0
H        6.78202892       6.52695113       2.93525138  F        0
H       13.32025657      13.20375310      10.31771692  F        0
H       13.32025658      16.39230324      10.31771692  F        0
H        8.32625906      20.60985804       8.81306681  F        0
H        5.72719026      20.39380587       1.33756863  F        0
H        8.66651872      21.47399316       3.93953912  F        0
H        6.36643797      17.19386972      -1.54340896  F        0
H        6.36643797      12.40218664      -1.54340896  F        0
Fe       8.66212870      12.63070863       3.00501409  T        0
Fe      10.93586947      14.45929815       4.32760649  T        1
O        9.04298563      14.55229608       3.58547920  T        2
O       10.03039780      14.06020912       2.53822883  T        3
