142
Lattice="20.102 0.0 0.0 0.0 19.731 0.0 0.0 0.0 13.253" Properties=species:S:1:pos:R:3:move_mask:L:1:tags:I:1 i=77 E=-3472.0240129048 regions="_JSON [\"Active\"]" n_terminators=34 energy=-951.4848273925786 pbc="F F F"
O       10.02270138      11.57864797       3.93451914  T        0
O        2.21435878      11.26892701       3.92887593  T        0
O        8.66119737       2.77013133       8.38468292  T        0
O        1.92369124      12.80893921       1.74541060  T        0
O        8.59493434       7.04732358       8.43228998  T        0
O        2.22436909      10.13240003       1.57352164  T        0
O        3.48466517      11.12499467       6.22320442  T        0
O        3.78192731       9.12650284       4.41909448  T        0
O        3.80547188       0.71059630       4.24307303  T        0
O        5.12776359       0.55740934      10.79314621  T        0
O        4.86326045      11.48123248       3.89967336  T        0
O        6.24547073       2.47245461       1.24305740  T        0
O        5.83038541       7.40101627       1.31998546  T        0
O        4.12701582       9.04842422       0.05850941  T        0
O        5.80620175       9.96825995       1.94353514  T        0
O        2.40151661       2.54816261       1.07062059  T        0
O        2.13017037       7.54396210       0.94751276  T        0
O        8.62407838      10.86580454       6.06306000  T        0
O        2.65358217       1.53812765      10.15301782  T        0
O        7.45467152      11.23247752       3.61164238  T        0
O        9.03735824       9.09962556       4.02899431  T        0
O        8.41027756       0.77216990       3.66275846  T        0
O        4.68697049       2.30363357       8.74650584  T        0
O        6.13515949      12.66821194       1.81042367  T        0
O        4.19016045       7.08394735       8.82686542  T        0
O        0.07512570       7.06027726       2.98994135  T        0
O        0.09180211       2.70008120       2.54378963  T        0
O       10.44266093       2.58772821       3.58563157  T        0
O       10.16306400       6.61634773       3.77242379  T        0
O        2.48759275       6.85389187       3.88035835  T        0
O        2.43364916       2.96621160       3.73677964  T        0
O        1.62455566       4.84990242       2.05202832  T        0
O        3.87649867       7.13315854       6.14660704  T        0
O        3.73954548       2.80895327       5.94773567  T        0
O        5.14186239       6.87586784       3.83788096  T        0
O        5.13243183       2.91156080       3.66127354  T        0
O        4.19733705       4.86371229       7.42520618  T        0
O        6.28183089       6.54114021       7.17801339  T        0
O        6.50374552       3.13212864       6.72264046  T        0
O        8.45525957       4.91184363       6.92952936  T        0
O        8.37991751       7.26808764       5.75332394  T        0
O        8.87685505       2.55577235       5.72046362  T        0
O        7.69319317       6.94011310       3.18484125  T        0
O        7.79088620       3.22197383       3.34096507  T        0
O        6.13153068       4.94818509       2.28046302  T        0
Si       1.55860488      11.34877563       2.42186128  T        0
Si       3.60092276      10.74365272       4.62312535  T        0
Si       5.61808131       8.91365445       0.72274855  T        0
Si       2.52488869       9.01876435       0.42639259  T        0
Si       8.74745667      10.66628480       4.42678570  T        0
Si       4.11583560       1.04686889       9.57094439  T        0
Si       6.05550124      11.34435266       2.78371607  T        0
Al       1.68545181       6.55337558       2.26857655  T        0
Si       1.60733690       3.27138541       2.32731742  T        0
Si       3.83927161       7.51533758       4.55284976  T        0
Si       3.79967727       2.32271478       4.36436814  T        0
Si       4.68032329       6.43773063       7.40012575  T        0
Al       4.90378022       3.19526113       7.29894817  T        0
Si       7.91822496       6.43255022       7.06725152  T        0
Si       8.08305889       3.31545506       6.93821170  T        0
Si       8.83896865       7.48938860       4.20202002  T        0
Si       8.90266823       2.28716404       4.10574526  T        0
Si       6.21638875       6.53308647       2.64737137  T        0
Si       6.32463209       3.35701345       2.62834052  T        0
O        6.75133709       9.26454111      -0.40988947  T        0
O        1.62134742       9.56376841      -0.84069378  T        0
O        2.05771662      -1.35420123       4.03487973  T        0
O        3.60377460      -1.21213768       6.10761605  T        0
O        4.66660251      -1.72129114       3.60997551  T        0
O        4.61198317      -2.78211909       8.08909077  T        0
O        6.00930298      -0.78072581       6.84080467  T        0
O        3.92819511      -0.25850902       8.57833685  T        0
Si       3.56245602      -0.88680180       4.50997215  T        0
Si       4.54971370      -1.26181012       7.44889496  T        0
O       -0.06000778      11.14397004       2.59780363  T        0
O       -2.03876652       8.92180918       9.34302894  T        0
O       -3.61603393       8.97484341       7.24399769  T        0
O       -4.03683049      10.83461069       9.18533438  T        0
O       -4.59285714       8.31302990       9.73117226  T        0
O       -5.09450951      11.09052379       2.46572164  T        0
O       -4.44613905       7.36815243       5.20604427  T        0
O       -4.39376128       2.60285683       5.22836725  T        0
O       -6.12651825       8.88477605       6.67691009  T        0
O       -4.43688376       9.99178968       4.87946441  T        0
O       -1.94075124      11.27136672       0.72102315  T        0
O       -2.63581794      11.18268116       3.31143326  T        0
O       -1.72829431       0.74083839       2.98083157  T        0
O       -1.60928668       8.99773804       2.13253053  T        0
O       -4.52191448      12.66993811       4.59360765  T        0
O       -4.78041567       2.83122317       2.48138212  T        0
O       -4.77061617       7.07539777       2.49422151  T        0
O       -1.91528915       2.27260245       0.79395009  T        0
O       -1.52232563       6.53369292       0.99856967  T        0
O       -2.39513854       3.19677184       3.36428118  T        0
O       -2.43226749       6.85101423       3.54872724  T        0
O       -4.24415552       4.94629517       4.11755657  T        0
Si      -3.57557990       9.27613256       8.86850399  T        0
Si      -4.63526602       8.80536184       5.97932477  T        0
Si      -1.56260844      10.64396149       2.19196456  T        0
Si      -4.19379614      11.23304641       3.84187864  T        0
Si      -1.47300436       2.25295216       2.38307414  T        0
Si      -1.42300458       7.40612755       2.38837095  T        0
Si      -3.96765409       3.34917600       3.81985227  T        0
Si      -4.01395653       6.54031007       3.86260208  T        0
H       10.94686465      11.30097846       4.04088346  F        0
H        8.32487049       1.96348467       8.80281458  F        0
H        2.20758188      13.00694286       0.83020008  F        0
H        8.32487050       7.90186745       8.80281456  F        0
H        4.03183819      10.81847925       6.97138289  F        0
H        5.99284639       0.93401564      11.03719697  F        0
H        5.69664664       1.68513527       1.05659762  F        0
H        2.35337064       1.61243811       0.82192755  F        0
H        7.89439933      10.75417195       6.69694328  F        0
H        1.92726146       1.06764952      10.59110356  F        0
H        8.57917594      -0.10444883       4.04180490  F        0
H        5.53537813      12.95496052       1.09262639  F        0
H        4.22937585       8.00675492       9.12987558  F        0
H       11.09748793       3.17088023       4.02620164  F        0
H       11.09748793       6.69447189       4.02620164  F        0
H        6.58577874       9.14969547      -1.35751146  F        0
H        1.54448592       9.14594745      -1.70877228  F        0
H        1.81269882      -1.43617684       3.09859994  F        0
H        5.52981240      -1.34062802       3.37578188  F        0
H        4.03182274      -3.06210338       8.82439872  F        0
H        6.92226376      -0.94135423       7.12331841  F        0
H       -1.81241333       8.42947104      10.15436836  F        0
H       -3.60084131      11.67065411       8.94650256  F        0
H       -5.52952690       8.52501985       9.87718642  F        0
H       -5.99256090      10.79936776       2.21577133  F        0
H       -4.35421061       1.68513522       5.56988652  F        0
H       -6.92197827       8.92429365       6.12964989  F        0
H       -2.15644976      10.75416907      -0.07046469  F        0
H       -1.47168132      -0.10444883       2.58467926  F        0
H       -4.51547912      12.95496051       5.53385777  F        0
H       -5.70518556       2.56164176       2.37811508  F        0
H       -5.70518557       7.30371036       2.37811510  F        0
H       -2.04192549       3.05661076       0.22907734  F        0
H       -2.04192548       6.80874135       0.22907734  F        0
Fe       0.60351106       6.43420452       4.81044632  T        0
Fe       2.47510412       4.36763528       6.32364081  T        1
O        1.04454999       5.80635797       6.66453577  T        2
O        0.54809542       4.64861791       5.82272813  T        3
