136
Lattice="24.397 0.0 0.0 0.0 24.397 0.0 0.0 0.0 24.397" Properties=species:S:1:pos:R:3:move_mask:L:1:tags:I:1 i=41 E=-6943.8331748197 regions="_JSON [\"Active\"]" n_terminators=32 energy=-912.3911873687449 pbc="F F F"
O       21.66032829       2.57801655       0.10306619  T        0
O       21.88107848       6.14858715       3.51248915  T        0
O       15.71399279       9.77402822       6.20507190  T        0
O       20.83330653      12.34782879       3.63661040  T        0
O       21.00739594       3.55432666      12.49677716  T        0
O       15.51595185       6.32227397       9.76297934  T        0
O       21.87274651      -0.15854462       2.54960195  T        0
O       18.29889946       9.77487067       3.55063745  T        0
O       21.80376751       3.56388461       5.94556099  T        0
O       18.39680215       3.29146566       9.65393349  T        0
O       23.73021576       1.62645158       1.80427699  T        0
O       22.83872457       5.42740484       8.02910337  T        0
O       22.63501287       7.99266195       5.32613767  T        0
O       17.67868390      10.50428958       7.91079843  T        0
O       20.16849165      10.46309933       5.37315999  T        0
O       23.68299180       4.25956287       4.23347832  T        0
O       18.87234365      14.13599082       4.27191506  T        0
O       16.30878274      11.46071292       4.18355281  T        0
O       17.64891704       7.87104204      10.55246250  T        0
O       20.06964235       5.20556231      10.59355382  T        0
O       20.86811550       5.99479414       5.86345977  T        0
O       18.20683431       8.78214170       6.03282112  T        0
O       22.01686625      12.32542583       6.08842566  T        0
O       20.92341572       0.01226511       0.04969787  T        0
O       24.32998069       2.64690374       6.27426204  T        0
O       24.39967182       6.24342707       2.58679966  T        0
O       18.31750000      12.25726990       2.60035004  T        0
O       14.61818060      12.26065144       6.14337519  T        0
O       18.06449277       5.88709294       8.96549572  T        0
O       21.98429058       6.10254961      12.29434802  T        0
O       22.64967649       4.32781854       1.78823103  T        0
O       13.83418711      10.40175399       4.40930369  T        0
O       22.65589333       4.37698709      10.50664561  T        0
O       20.12368426       8.01988911       4.31851314  T        0
O       16.61383823       7.99547328       8.04069328  T        0
O       22.65861882      10.48585819       4.36912432  T        0
O       20.20161819      14.07838263       1.83449434  T        0
O       16.58057425      10.40464569       1.67868162  T        0
O       22.72415982       1.74355702       4.27754736  T        0
O       20.06685600       4.41225633       8.02185746  T        0
Al      23.32921321       2.97315840       0.79248341  T        0
Si      23.67096949       4.87305734       9.30974497  T        0
Si      21.38753129       7.10680641       4.78120320  T        0
Si      17.02072815       9.24876671       7.06046861  T        0
Si      21.39990368      11.42461948       4.86476190  T        0
Si      23.17714133       0.74565649       3.04122364  T        0
Si      19.18530449       9.27479602       4.82372467  T        0
Al      21.46746779       4.88752052       7.15695346  T        0
Si      23.60466843       9.25123677       4.87282079  T        0
Si      23.17535058       3.01673741       5.19751341  T        0
Si      17.35023119      10.99585748       3.00395402  T        0
Si      19.16082501       4.71577295       9.31006947  T        0
Si      15.13770267      10.98267798       5.23727450  T        0
Si      19.55557430      13.21838170       3.07783939  T        0
Si      23.19295551       5.25389578       3.03478266  T        0
Si      21.39591734       4.80257712      11.47774797  T        0
Si      16.95566631       7.01485686       9.32382863  T        0
O       24.58119175       3.59335999       8.79174118  T        0
O       24.57676456       8.71423036       3.66364897  T        0
O       26.34010764       6.71027828       4.23441015  T        0
O       26.29484476       4.25693497       6.74157537  T        0
O       24.47224218       9.80584160       6.14866697  T        0
O       24.66874486       6.03405756       9.93117483  T        0
O       26.27159018       8.03949483       1.80356907  T        0
O       26.24663507       1.78891574       8.01625216  T        0
Si      25.42133552       7.43640176       3.07411568  T        0
Si      25.38674645       3.07826591       7.46707302  T        0
O       24.69513612       2.39325697      -2.76387736  T        0
O       26.29338029       1.82890966      -0.64151098  T        0
O       24.32979727      -0.17540143      -3.54501166  T        0
O       26.47565457       4.19734342      -2.04883572  T        0
Si      25.47807253       3.02321761      -1.45107425  T        0
O       18.14070034       2.39332112      -3.61075381  T        0
O       20.81533087       2.41731845      -6.23301620  T        0
O       20.09429590       0.70923888      -4.32559567  T        0
O       22.66023299       0.98397169      -1.75834258  T        0
O       18.87087463       1.85339487      -8.05948304  T        0
O       16.30338044       1.87244636      -5.54467199  T        0
O       24.43727929       3.58498150      -0.35470511  T        0
O       18.27314635      -0.07158779      -2.46588121  T        0
O       21.95809642      -0.05502098      -6.14656273  T        0
O       18.32317119       3.45810103      -6.08214412  T        0
O       20.04952684       1.69741602      -1.83856261  T        0
O       22.59996228       1.67277647      -4.32468237  T        0
O       20.15467621       4.30270826      -7.91460240  T        0
O       16.49512045       4.31202189      -4.25562307  T        0
Si      19.11960422       1.18567985      -3.09515087  T        0
Si      21.35062297       1.19549429      -5.27431244  T        0
Si      23.59499113       1.22427705      -3.09921115  T        0
Si      19.54184198       3.01389188      -7.09047284  T        0
Si      21.31369917       1.28270374      -0.89517074  T        0
Si      17.29735863       3.01603498      -4.88057859  T        0
O       17.92199072      -3.44915687       2.37803103  T        0
O       22.63311887      -1.88281753       0.57900556  T        0
O       19.89540003      -4.69305513       1.15789768  T        0
O       24.30619909      -0.22320510       3.74590381  T        0
O       18.42789683      -2.82571072      -0.20918560  T        0
O       20.14125110      -2.02087236       1.62897263  T        0
Si      21.38146008      -1.02201319       1.23454470  T        0
Si      19.09954893      -3.24391284       1.23458146  T        0
H       20.10951519       3.23923103      12.72546793  F        0
H       15.43757911       5.57209275      10.38640946  F        0
H       17.77043311       3.23924387      10.38640412  F        0
H       17.22544067      10.92750153       8.65411313  F        0
H       19.36965547      14.75328399       4.82834093  F        0
H       17.22544070       8.65411150      10.92750362  F        0
H       21.54216027      12.99764967       6.60187561  F        0
H       15.05290853      12.70105704       6.89848521  F        0
H       21.54216028       6.60187434      12.99765198  F        0
H       13.44269068      10.71000821       3.56560630  F        0
H       19.78591980      14.73191782       1.24430354  F        0
H       15.76397041      10.70999753       1.24433830  F        0
H       26.95194123       7.17131746       4.82834527  F        0
H       26.95194124       4.82834452       7.17131883  F        0
H       25.19630608       9.34383456       6.60185911  F        0
H       25.19630604       6.60185806       9.34383627  F        0
H       26.93058105       7.58756876       1.24433203  F        0
H       26.93058086       1.24433163       7.58757011  F        0
H       26.95192867       1.27083937      -1.07240246  F        0
H       25.19622735      -0.50276655      -3.24494277  F        0
H       26.93057835       4.85486043      -1.48866112  F        0
H       19.36968740       1.27081557      -8.65438303  F        0
H       15.74261410       1.27081536      -5.02730892  F        0
H       17.49833355      -0.50278089      -2.85477948  F        0
H       21.54221652      -0.50278066      -6.89866328  F        0
H       19.78593015       4.85484827      -8.63303166  F        0
H       15.76396555       4.85484859      -4.61106623  F        0
H       17.77043326      -4.28747560       2.85995000  F        0
H       23.12589418      -2.55519498       1.07214050  F        0
H       20.85246702      -4.82860575       1.07212032  F        0
H       24.89950013      -0.79949361       3.24468082  F        0
H       17.49833238      -2.85478383      -0.50277915  F        0
Fe      20.37772287       4.33353923       4.62910944  T        0
Fe      20.69313917       3.48402081       1.59597555  T        1
O       19.37360459       4.38819607       2.86804024  T        2
O       19.69849037       2.96624112       3.28920701  T        3
