144
Lattice="19.123 0.0 0.0 0.0 14.277 0.0 0.0 0.0 7.5465" Properties=species:S:1:pos:R:3:move_mask:L:1:tags:I:1 i=128 E=-2603.9155142701 regions="_JSON [\"Active\"]" n_terminators=34 energy=-969.1563460917135 pbc="F F F"
O        6.01844971       1.14009780       1.44502094  T        0
O       15.69996346       8.42349944       5.80957127  T        0
O        3.38536548       8.45057930       5.86180047  T        0
O        6.08804932      13.12906336       1.50583110  T        0
O       15.87859586       5.76086254       5.89287088  T        0
O       13.05940909      13.14945807       1.45578415  T        0
O        3.37638444       5.76295407       5.88322881  T        0
O       13.28106165      13.18823708       6.20542237  T        0
O        3.34612904       5.79933594       1.61645755  T        0
O        5.89965383      13.15458216       6.16327588  T        0
O       15.72424606       5.87155867       2.14038886  T        0
O        3.30670080       8.50592720       1.60301151  T        0
O        6.01896663       1.13213889       6.10630166  T        0
O       15.54248987       8.47242668       1.72724726  T        0
O        7.31439542       3.31883556       2.47286155  T        0
O       17.25739282      10.57716449       6.20306172  T        0
O       11.58880131       3.52360020       2.18444341  T        0
O        2.07965171      10.77847599       6.19489147  T        0
O        7.29515755      10.89632754       2.50564492  T        0
O       12.05967828      10.80519182       2.50685293  T        0
O        1.98412148       3.45383890       6.07035466  T        0
O       12.01957351      10.87206902       5.36552681  T        0
O        2.02968628       3.43019316       1.45319442  T        0
O        7.24524611      10.95608550       5.16076455  T        0
O       12.06634754       3.07732804       4.73603933  T        0
O        2.03266711      10.89945911       1.47063256  T        0
O        7.27728220       3.35609354       5.10038677  T        0
O       17.21772105      10.55044129       1.33146567  T        0
O        6.67488804       3.24239808      -0.05066518  T        0
O       16.18805798      10.08070600       3.76763958  T        0
O        3.01409411      10.08518403       3.76383086  T        0
O        6.67697665      11.04657572      -0.04019923  T        0
O       12.58079304      10.96756959      -0.03698658  T        0
O        3.02188614       4.19455631       3.74901809  T        0
O        4.72055957       3.48644034       1.82613179  T        0
O       14.63622943      10.89794443       5.79081312  T        0
O        4.69117423      10.76382932       5.72387246  T        0
O        4.70907370      10.80867811       1.83634539  T        0
O       14.61870061      10.99999563       1.77606887  T        0
O        4.66889103       3.43181672       5.71319248  T        0
O       11.44760970       8.27674724       4.04129664  T        0
O        7.61099963       8.55891032       3.89047818  T        0
O       11.60284118       5.64175616       3.88888783  T        0
O        7.60187166       5.67285618       3.77214626  T        0
O        9.53925915      10.17401290       4.01113934  T        0
O        9.58537638       3.89225298       3.85387262  T        0
O       13.57391890       6.96093439       5.07326489  T        0
O        5.68232823       7.09576767       5.30935755  T        0
O        5.44976343       7.20813410       2.48743210  T        0
O       13.33733530       7.10968824       2.41310692  T        0
O       14.34053682       6.77590222      -0.05266307  T        0
O        4.96746201       7.17742679      -0.07593550  T        0
Si       6.15783258       2.79145222       1.44348277  T        0
Si      15.93269009      10.00236957       5.39265767  T        0
Si       3.27824478      10.03179810       5.37113526  T        0
Si       6.15664768      11.47443870       1.46189155  T        0
Si      13.07460103      11.48448610       1.45508615  T        0
Si       3.27055612       4.19263037       5.35652266  T        0
Si      13.19073639      11.52912994       6.25272681  T        0
Si       3.29940843       4.23864918       2.12581238  T        0
Si       6.07476255      11.51168499       6.15506323  T        0
Si       3.28208762      10.05402654       2.13728588  T        0
Si       6.12589658       2.78421647       6.09318933  T        0
Si      15.87597993      10.03207207       2.14976021  T        0
Al      11.34439990      10.14996237       3.93209627  T        0
Si       7.90124604      10.18764255       3.85188184  T        0
Si      11.20989921       4.04823943       3.70163639  T        0
Si       7.94814076       4.09310092       3.78003663  T        0
Si      14.85598265       7.04642419       6.08266895  T        0
Si       4.25482737       7.10203929       6.10718213  T        0
Si       4.26417153       7.16261414       1.41467281  T        0
Si      14.74013442       7.06074325       1.52850365  T        0
Si      12.51443634       7.00651994       3.83062514  T        0
Al       6.60198442       7.09443305       3.73911312  T        0
O        6.29459018      13.06841650       9.70801893  T        0
O       12.93637763      13.02787913       9.91791811  T        0
O        3.26904104       5.86167485       9.47653883  T        0
O        3.56927077       8.47261633       9.51745701  T        0
O        7.39891215      10.72480702      10.15204261  T        0
O       11.99473106      10.61728550      10.26441111  T        0
O       11.84596416      10.37746131      12.96307793  T        0
O        7.55410321      10.80091936      12.89040681  T        0
O        2.31569117      10.75194463       8.84423152  T        0
O        6.58938243       3.31369430       7.59531530  T        0
O        2.72001381      10.20236992      11.40403495  T        0
O        6.42308756      11.17150832       7.71986462  T        0
O       12.97570015      11.21094893       7.85339810  T        0
O        4.78588676      10.83213215       9.80323059  T        0
O       14.66961345      11.03633392       9.96617492  T        0
O       11.34414833       8.22061240      11.39975598  T        0
O        7.39561754       8.46441227      11.54535002  T        0
O        1.80750972      13.12933147       7.57446213  T        0
O        7.81653643       5.87035945      11.45611495  T        0
O        9.61164125      10.07818916      11.45551589  T        0
O       -0.04467972      11.19146716       7.85615959  T        0
O        5.71467533       6.74284713      12.86528166  T        0
O        5.70220066       6.92963992      10.16168858  T        0
O       14.19031488       7.05608892       7.60158250  T        0
O        4.93521716       7.09240642       7.67671638  T        0
Si       6.21216556      11.47113571       9.32604047  T        0
Si      13.14544085      11.45916807       9.45692133  T        0
Si       3.35294790      10.06760010       9.88863981  T        0
Si      11.24119928       9.86053385      11.51406881  T        0
Si       7.98670072      10.00853748      11.51061226  T        0
Si       1.54533387      11.49301142       7.59283523  T        0
Si       4.35467524       7.07613336       9.26660406  T        0
Si       6.64474088       7.01862919      11.52466880  T        0
H        5.61083456       0.52083913       2.07985367  F        0
H        5.61112307      13.75835362       2.07975607  F        0
H       15.75636517       4.89339805       5.45628994  F        0
H       13.50958039      13.75682243       2.07498241  F        0
H       13.51084140      13.75504172       5.44776650  F        0
H        5.62495998      13.75277707       5.44935724  F        0
H       15.75706449       4.89440344       2.08043705  F        0
H        5.62509051       0.52255101       5.44942550  F        0
H       17.28974254      11.12548174       7.01862795  F        0
H       12.44565577       3.15588527       1.90033815  F        0
H        1.81954193       3.15353441       6.98813474  F        0
H        1.83183800       3.14857954       0.53722786  F        0
H       12.44354748       3.15657450       5.63339447  F        0
H        1.83154049      11.12909684       0.54034962  F        0
H       17.29120144      11.12876736       0.54010345  F        0
H        6.35952436       2.97904956      -0.93427223  F        0
H        6.36236324      11.29726414      -0.93275871  F        0
H       12.76174962      11.29928001      -0.93393629  F        0
H       14.60982961       7.13673871      -0.92783774  F        0
H        4.51175007       7.13509558      -0.92932085  F        0
H        5.61112307      13.75835362       9.62625607  F        0
H       13.50958039      13.75682243       9.62148241  F        0
H        3.36661743       4.89904760       9.62155888  F        0
H       12.44514575      11.11938908      13.17925925  F        0
H        6.67998430      11.11604137      13.18119228  F        0
H        6.35949513       2.97597070       8.47938261  F        0
H        3.19647477      10.11404518      12.25127207  F        0
H       15.20026252      10.29732969       9.62683702  F        0
H       12.12595522       7.65409943      11.30914176  F        0
H        2.56257806      13.76129914       7.54737584  F        0
H        7.80677964       4.90364681      11.30820371  F        0
H       -0.96427299      11.34215683       7.54753770  F        0
H        4.87489857       7.13453431      13.17640583  F        0
H       14.61405599       7.13800201       8.47661577  F        0
Fe       9.52422328       8.08825665       4.90712332  T        0
Fe       7.01430640       7.20481550       6.90008911  T        1
O        8.74409659       7.47542577       6.49627146  T        2
