138
Lattice="24.397 0.0 0.0 0.0 24.397 0.0 0.0 0.0 24.397" Properties=species:S:1:pos:R:3:move_mask:L:1:tags:I:1 i=41 E=-6943.8331748197 regions="_JSON [\"Active\"]" n_terminators=32 energy=-931.7857489776133 pbc="F F F"
O       21.65534170       2.59428746       0.06782796  T        0
O       21.88952798       6.20147850       3.49094953  T        0
O       15.54605433       9.69462219       6.25485410  T        0
O       21.00286520      12.45928422       3.53531820  T        0
O       20.82254982       3.63828858      12.34608326  T        0
O       15.68731764       6.22640936       9.80628349  T        0
O       21.85296720      -0.03094149       2.53277381  T        0
O       18.38116836       9.63766590       3.32782273  T        0
O       21.79622096       3.52436231       5.93423442  T        0
O       18.27011094       3.56802393       9.81120436  T        0
O       23.74817531       1.70993990       1.77699841  T        0
O       22.82500983       5.39130133       8.00894274  T        0
O       22.63047616       7.99348181       5.35694245  T        0
O       17.61477970      10.57313819       7.84073804  T        0
O       20.07405015      10.57619468       5.22627081  T        0
O       18.86745889       4.25853507      14.15349324  T        0
O       16.27121280       4.17333084      11.48324910  T        0
O       23.65709826       4.28901943       4.22766128  T        0
O       17.68479252       7.91763962      10.50599253  T        0
O       20.15717712       5.37356804      10.47203399  T        0
O       20.86557057       5.96320069       5.84765960  T        0
O       18.12049351       8.90367995       5.92979247  T        0
O       21.97971738      12.29709719       6.09273418  T        0
O       18.29498209       2.59814611      12.28323127  T        0
O       14.59887390       6.14305236      12.28356526  T        0
O       20.96864083       0.01588052       0.01035508  T        0
O       24.33769664       2.67425978       6.27500518  T        0
O       24.40821061       6.24994955       2.57364325  T        0
O       18.17141704       6.03151951       8.80587892  T        0
O       22.01827489       6.08223750      12.33251630  T        0
O       22.65007342       4.36565172       1.75404714  T        0
O       16.58029468       1.67901825      10.41213629  T        0
O       22.67276037       4.37724942      10.50111676  T        0
O       20.12684410       8.03499831       4.36887080  T        0
O       16.59925109       8.04500229       8.01427823  T        0
O       22.63197072      10.47932478       4.37399734  T        0
O       20.20311679       1.82736375      14.07320906  T        0
O       13.80533398       4.42593707      10.41535728  T        0
O       22.81392034       1.73396560       4.27734197  T        0
O       20.04866136       4.34653177       8.00715687  T        0
Al      23.33062247       3.02232228       0.73911040  T        0
Si      23.67202781       4.87722579       9.29448448  T        0
Si      21.39025487       7.10467228       4.79350935  T        0
Si      16.96026937       9.29916804       7.01848927  T        0
Si      21.38760582      11.47306509       4.80384526  T        0
Si      19.55244950       3.07631462      13.21953303  T        0
Si      15.11617496       5.23933115      11.00179798  T        0
Si      23.21838212       0.78961268       2.98882243  T        0
Si      19.16209342       9.30634774       4.74081148  T        0
Al      21.44964310       4.84335146       7.14692636  T        0
Si      23.59051571       9.25378380       4.88010685  T        0
Si      17.33420327       3.00845888      11.01777299  T        0
Si      23.18833319       3.02956026       5.18837288  T        0
Si      19.17351956       4.81889009       9.27132095  T        0
Si      23.18233284       5.27931368       3.01579136  T        0
Si      21.39919974       4.86658360      11.41697537  T        0
Si      17.00599658       7.05626391       9.27086503  T        0
O       24.62277653       3.62109886       8.79294760  T        0
O       24.55276991       8.71620520       3.65988669  T        0
O       26.31488978       6.72004290       4.25446831  T        0
O       26.34409071       4.21983698       6.72456724  T        0
O       24.47764314       9.81107635       6.14289760  T        0
O       24.62806556       6.06720594       9.92215508  T        0
O       26.29090261       8.04776178       1.82144094  T        0
O       26.22168270       1.76173989       8.00772223  T        0
Si      25.41620038       7.44605378       3.07791014  T        0
Si      25.40101642       3.08030244       7.46326541  T        0
O       24.70369491       2.41803793      -2.83050130  T        0
O       26.24817769       1.80856825      -0.68915225  T        0
O       24.34281036      -0.16206061      -3.57226622  T        0
O       26.51317842       4.18823270      -2.06801515  T        0
Si      25.47896696       3.02860787      -1.50182169  T        0
O       24.61309394      -2.70775635       2.41952313  T        0
O       26.31352966      -0.64313470       1.85780853  T        0
O       24.45145403      -3.70960131      -0.08126449  T        0
O       26.31587062      -1.98006014       4.27535794  T        0
Si      25.41899264      -1.40514550       3.01615428  T        0
O       17.97857741       2.43778569      -3.43182059  T        0
O       20.99779099       2.53038168      -6.38104796  T        0
O       19.98702173       0.95835282      -4.47052044  T        0
O       22.67746569       1.01405995      -1.79446685  T        0
O       24.42579236       3.61530704      -0.42943122  T        0
O       18.35872881      -0.13272642      -2.60444381  T        0
O       21.89431755      -0.05561755      -6.11460571  T        0
O       20.06028402       1.68304022      -1.88822427  T        0
O       22.59024783       1.68700730      -4.35826369  T        0
Si      19.08039253       1.24005211      -3.13585291  T        0
Si      21.34150261       1.28387822      -5.34540783  T        0
Si      23.60118645       1.24369066      -3.14311605  T        0
Si      21.32557582       1.29542111      -0.93159773  T        0
O       18.01806621      -3.42973776       2.46036189  T        0
O       21.00104947      -6.40958821       2.52143031  T        0
O       22.64704702      -1.89655338       0.79288171  T        0
O       20.00782844      -4.47349762       0.96424471  T        0
O       24.35528268      -0.26647901       3.50562114  T        0
O       18.36445135      -2.62365733      -0.12775919  T        0
O       21.90793240      -6.12288845      -0.05191703  T        0
O       20.10088418      -1.89023516       1.66930026  T        0
O       22.61346531      -4.38933810       1.71296256  T        0
Si      21.38773529      -0.96240287       1.25978560  T        0
Si      21.35384432      -5.35815825       1.29091022  T        0
Si      23.59386137      -3.17132087       1.21563138  T        0
Si      19.10566401      -3.13269677       1.24679028  T        0
H       15.43757914      10.38640764       5.57209357  F        0
H       20.10951523      12.72546585       3.23923157  F        0
H       17.77043279      10.38640226       3.23924444  F        0
H       17.22544067      10.92750153       8.65411313  F        0
H       19.36965545       4.82834000      14.75328662  F        0
H       17.22544070       8.65411150      10.92750362  F        0
H       21.54216027      12.99764967       6.60187561  F        0
H       15.05290857       6.89848394      12.70105939  F        0
H       21.54216028       6.60187434      12.99765198  F        0
H       15.76397057       1.24433790      10.70999951  F        0
H       19.78591983       1.24430349      14.73192035  F        0
H       13.44269039       3.56560577      10.71001015  F        0
H       26.95194123       7.17131746       4.82834527  F        0
H       26.95194124       4.82834452       7.17131883  F        0
H       25.19630608       9.34383456       6.60185911  F        0
H       25.19630604       6.60185806       9.34383627  F        0
H       26.93058105       7.58756876       1.24433203  F        0
H       26.93058086       1.24433163       7.58757011  F        0
H       26.95192867       1.27083937      -1.07240246  F        0
H       25.19622735      -0.50276655      -3.24494277  F        0
H       26.93057835       4.85486043      -1.48866112  F        0
H       26.95192866      -1.07240650       1.27083969  F        0
H       25.19622853      -3.24494603      -0.50276481  F        0
H       26.93057847      -1.48866524       4.85486109  F        0
H       17.77043356       2.85994955      -4.28747201  F        0
H       20.10952426       2.85994950      -6.62656333  F        0
H       17.49833355      -0.50278089      -2.85477948  F        0
H       21.54221652      -0.50278066      -6.89866328  F        0
H       17.77043326      -4.28747560       2.85995000  F        0
H       20.10952426      -6.62656664       2.85995001  F        0
H       17.49833238      -2.85478383      -0.50277915  F        0
H       21.54221602      -6.89866750      -0.50277915  F        0
Fe      20.73543143       3.43985636       1.62874252  T        0
Fe      20.38123090       4.31176966       4.62386415  T        1
O       19.67003933       3.69233619       3.07255426  T        2
