141
Lattice="19.123 0.0 0.0 0.0 14.277 0.0 0.0 0.0 7.5465" Properties=species:S:1:pos:R:3:move_mask:L:1:tags:I:1 i=128 E=-2603.9155142701 regions="_JSON [\"Active\"]" n_terminators=32 energy=-955.3825910030118 pbc="F F F"
O        6.25803536       1.25170769       2.12839550  T        0
O       15.59121903       8.48480913       5.79391337  T        0
O       13.03406166       1.10888533       1.45974901  T        0
O        3.21917355       8.53940918       5.89169989  T        0
O        6.04853375      13.17860814       1.42913115  T        0
O       15.57507956       5.80139198       5.78835499  T        0
O       13.19566705      13.17839944       1.35412552  T        0
O        3.23000336       5.81310050       5.92608192  T        0
O       13.06291905      13.16782147       6.08916664  T        0
O        3.38342550       5.77786260       1.71438942  T        0
O        6.06023061      13.11959452       6.05283758  T        0
O       15.68644097       5.75894232       1.70987277  T        0
O       13.03480411       1.09621406       6.07629519  T        0
O        3.64193494       8.44558736       1.97210442  T        0
O        5.88082090       1.14343068       6.15566273  T        0
O       15.64305530       8.44567822       1.76594363  T        0
O        7.34719548       3.67899701       2.28800344  T        0
O       17.18453704      10.63242176       6.17556082  T        0
O       11.82690044       3.34680340       2.44941452  T        0
O        2.00948678      10.95727743       6.07419481  T        0
O        7.12456337      10.90572576       2.48924844  T        0
O       17.13330331       3.61816535       6.17727911  T        0
O       12.02543203      10.93238890       2.43111532  T        0
O        2.01603839       3.38625938       6.06123825  T        0
O       11.92198623      10.82673036       5.17294638  T        0
O        2.12047436       3.43133549       1.35394017  T        0
O        7.28625608      10.86121474       5.10681309  T        0
O       17.11631878       3.46578024       1.45084361  T        0
O       11.87426355       3.35670397       5.08961366  T        0
O        1.99585477      10.43216251       1.21574367  T        0
O        7.22871921       3.20611739       4.98995080  T        0
O       17.22912501      10.58689003       1.35671412  T        0
O        6.47054772       2.89260819      -0.07255546  T        0
O       16.13932681      10.13289022       3.76892166  T        0
O       12.45432677       3.23949358      -0.04873813  T        0
O        2.95392524      10.22268703       3.76264604  T        0
O        6.60214803      11.00333979      -0.03819843  T        0
O       16.08677821       4.11163806       3.78963526  T        0
O       12.53719586      10.98193847      -0.05376357  T        0
O        3.01733548       4.15374749       3.79098813  T        0
O        4.72241157       3.46888358       1.85553708  T        0
O       14.54492617      10.96908529       5.76108944  T        0
O       14.43456205       3.38493829       1.82659586  T        0
O        4.68652896      10.79718540       5.70414925  T        0
O        4.56000048      10.97307626       1.75693136  T        0
O       14.47046666       3.35089246       5.77490833  T        0
O       14.60065035      10.93255193       1.71415836  T        0
O        4.70841413       3.57216857       5.75551279  T        0
O        1.80772788       1.13988245      -0.09251319  T        0
O       11.41179060       8.30302033       3.62217540  T        0
O        7.53703613       8.52176816       3.70132486  T        0
O       11.57906797       5.67411091       3.77227990  T        0
O        7.56132494       5.67215316       3.88066792  T        0
O       -0.03486359       3.09472111      -0.28986365  T        0
O        9.46920178      10.10909677       3.57366001  T        0
O        9.57806386       3.89403793       3.81433960  T        0
O       13.35879802       7.16258276       5.12410198  T        0
O        5.31451767       7.18338859       5.01734208  T        0
O        5.79516748       6.81485692       2.15806487  T        0
O       13.46801860       7.03461471       2.45159097  T        0
O       14.14709220       7.09811423      -0.07069633  T        0
O        4.57929237       7.22759244      -0.17331121  T        0
Si       6.15203944       2.77925771       1.52340989  T        0
Si      15.84636574      10.06312950       5.38641890  T        0
Si      12.97363176       2.76274305       1.43400313  T        0
Si       3.23381625      10.10289160       5.37892043  T        0
Si       6.06365103      11.52569376       1.42181790  T        0
Si      15.80754323       4.22242353       5.40280297  T        0
Si      13.09236040      11.51773418       1.39880573  T        0
Si       3.25522319       4.25266398       5.41336715  T        0
Si      13.02417855      11.50211004       6.11991531  T        0
Si       3.28966396       4.21273861       2.18705591  T        0
Si       6.12570568      11.46610142       6.10113770  T        0
Si      15.82098265       4.18885393       2.17294300  T        0
Si      12.98923618       2.74953131       6.12117181  T        0
Si       3.28487584      10.03727814       2.16970718  T        0
Si       6.08868266       2.77823018       6.11390123  T        0
Si      15.88435921      10.03321716       2.14629540  T        0
Si       1.56194014       2.78371875      -0.06620626  T        0
Al      11.26599416      10.14846865       3.75013368  T        0
Si       7.83517971      10.14855919       3.74919710  T        0
Si      11.22485820       4.07409739       3.77895976  T        0
Si       7.95903305       4.09208804       3.84157595  T        0
Si      14.68779534       7.15239039       6.09168681  T        0
Si       4.14391463       7.18431296       6.11191142  T        0
Si       4.33440298       7.07878821       1.42356065  T        0
Si      14.76578267       7.09928857       1.45584031  T        0
Si      12.48585518       7.04620406       3.75061510  T        0
Al       6.49699373       7.10364407       3.81515026  T        0
O        6.67492467       3.22114807       7.58600181  T        0
O       12.43762992       3.21534390       7.59573228  T        0
O        6.64443994      11.02042766       7.59426609  T        0
O       12.52726104      10.98812100       7.60108962  T        0
O       14.11522778       7.12962238       7.63715076  T        0
O        4.88603128       7.20464175       7.58363515  T        0
O        3.40926657       8.42813365      -2.33896766  T        0
O        3.57066036       5.81146514      -2.20656974  T        0
O        6.32123540       1.20360647      -2.17494188  T        0
O        2.35897598       3.54306663      -1.29360315  T        0
O        7.57510028       3.56520207      -2.37135546  T        0
O        2.85105679       3.81977868      -3.87277202  T        0
O        4.87684534       3.50035492      -2.12718114  T        0
O        5.90725807       7.22896875      -2.33375981  T        0
Si       3.40779046       4.18606935      -2.36750954  T        0
Si       6.27779689       2.79039574      -1.71721723  T        0
Si       4.35142635       7.19056924      -1.78554837  T        0
H        5.61083456       0.52083913       2.07985367  F        0
H       13.50938118       0.51971906       2.07492992  F        0
H        5.61112307      13.75835362       2.07975607  F        0
H       13.50958039      13.75682243       2.07498241  F        0
H       13.51084140      13.75504172       5.44776650  F        0
H        5.62495998      13.75277707       5.44935724  F        0
H       13.50975252       0.52161770       5.44778410  F        0
H        5.62509051       0.52255101       5.44942550  F        0
H       17.28974254      11.12548174       7.01862795  F        0
H        1.83343022      11.12554006       7.01950242  F        0
H       17.28979000       3.14560285       7.02339196  F        0
H        1.81954193       3.15353441       6.98813474  F        0
H       17.29134854       3.14797220       0.53999843  F        0
H        1.83154049      11.12909684       0.54034962  F        0
H       17.29120144      11.12876736       0.54010345  F        0
H       12.76076393       2.97683097      -0.93375646  F        0
H        6.36236324      11.29726414      -0.93275871  F        0
H       12.76174962      11.29928001      -0.93393629  F        0
H        2.56244240       0.51556882       0.00084209  F        0
H       -0.96435880       2.93479999       0.00082830  F        0
H       14.60982961       7.13673871      -0.92783774  F        0
H        6.35949513       2.97597070       8.47938261  F        0
H       12.76321398       2.97604733       8.47995589  F        0
H        6.35946036      11.30224636       8.48133548  F        0
H       12.76333233      11.30075111       8.47967776  F        0
H       14.61405599       7.13800201       8.47661577  F        0
H        4.50898861       7.14016697       8.47499567  F        0
H        3.36611374       9.37433505      -2.09115109  F        0
H        5.62509051       0.52255101      -2.09707450  F        0
H        7.72584421       3.99139588      -3.24276680  F        0
H        3.20026696       4.16316078      -4.71757657  F        0
H        6.23944212       7.13797332      -3.24031999  F        0
Fe       9.52016487       8.02920745       2.79056669  T        0
Fe       7.57522696       5.81963649       1.59990344  T        1
O        9.02185547       6.89488825       1.41451133  T        2
