138
Lattice="24.397 0.0 0.0 0.0 24.397 0.0 0.0 0.0 24.397" Properties=species:S:1:pos:R:3:move_mask:L:1:tags:I:1 i=41 E=-6943.8331748197 regions="_JSON [\"Active\"]" n_terminators=30 energy=-941.8793128575896 pbc="F F F"
O        9.49336974      14.59494915      -0.18270519  T        0
O       14.94449866      20.83663056       6.32975281  T        0
O        9.67798880      18.34148911       3.59583049  T        0
O       18.49317519      20.72508921       2.58141605  T        0
O        9.70631468      12.00309496       2.57873814  T        0
O        5.95161015      21.87849161       3.70904222  T        0
O        9.74975798      15.62955407       6.34347707  T        0
O       12.12375949      20.82645317       3.46261395  T        0
O       15.83625545      20.84165920      -0.04485849  T        0
O       11.43022318      13.90286300       1.94173350  T        0
O       12.85980244      20.14160197       7.98440145  T        0
O       10.35376944      17.69086405       8.02863248  T        0
O       10.36152929      20.16639150       5.38801826  T        0
O        7.90993744      22.60776973       5.37083014  T        0
O       16.50462666      19.10733997       1.91757654  T        0
O       10.36166177      10.25196318       0.58099232  T        0
O       11.29367128      16.32702088       4.33277678  T        0
O       14.22467687      18.95025238       4.62244434  T        0
O        4.13411851      23.82932511       4.24492565  T        0
O       20.24170660      20.13914495       0.58258611  T        0
O       12.14367159      11.99192457       3.77013258  T        0
O       12.43009202      21.72756649       5.97204393  T        0
O        8.73121040      18.14074295       6.08325378  T        0
O        6.09893596      20.77466719       6.20458937  T        0
O       18.35132164      18.22700111       3.68454751  T        0
O        8.66853042      12.07497102       0.03787062  T        0
O       12.25304802      14.58688743       6.17314365  T        0
O       12.21731216      18.14358594       2.65333900  T        0
O       16.08150679      18.39293102       6.47482345  T        0
O        6.13775621      24.35731629       2.65058869  T        0
O       18.31853641      21.79639815       0.09267923  T        0
O       10.43062802      16.60520829       1.72094040  T        0
O       14.10748716      22.63396265       7.92835316  T        0
O        7.86509188      20.09808492       4.44245050  T        0
O       10.41785840      22.65801362       4.40194777  T        0
O       16.66947346      20.03746491       4.44647417  T        0
O        4.28935065      22.54776644       1.79714677  T        0
O       10.43018535      13.81265992       4.44404456  T        0
O        7.91729463      16.36016296       7.98789660  T        0
O       14.03903316      20.07388266       1.81246657  T        0
O       20.18195677      22.56866657       1.92181572  T        0
O        7.94351307      10.27240962       1.94881845  T        0
Al      10.78644613      15.08204224       0.85548707  T        0
Si      13.57913209      21.32920131       7.08653760  T        0
Si       9.14306322      19.18216697       4.89812276  T        0
Si       9.14574266      23.57985034       4.90275636  T        0
Si      17.52188735      19.53445289       3.14486244  T        0
Si      10.94217381      12.93099829       3.13918336  T        0
Si       6.93409836      21.36461335       4.91863604  T        0
Si       9.18237209      16.95572872       7.12585082  T        0
Si      11.32680727      21.36422186       4.83214572  T        0
Si      15.33291133      19.60824712       0.89877763  T        0
Si       9.16908154      11.15028146       1.28807466  T        0
Si      10.92489169      15.08130418       5.33956088  T        0
Al      13.26914932      19.39991410       3.30012081  T        0
Si       5.10854627      23.15604299       3.09115164  T        0
Si      15.47639784      19.54796498       5.46619671  T        0
Si      10.86414854      17.31777534       3.12536281  T        0
Si      19.32547919      21.31414507       1.29292002  T        0
O        8.62390198      24.54997813       3.68991743  T        0
O        6.66854743      26.35832463       4.24679688  T        0
O        9.75308075      24.42928943       6.17177785  T        0
O        7.94752564      26.20538437       1.79314657  T        0
Si       7.33810356      25.38856235       3.08690726  T        0
O       14.78917664      12.01821048      -2.39647090  T        0
O        6.00307151      14.75595125      -3.46903100  T        0
O       15.84056485      18.35629813      -2.53061378  T        0
O       12.16885668      14.71306042      -2.56591017  T        0
O        8.83902669      14.78861471      -6.46942568  T        0
O       18.45425703      15.71729779      -2.44890311  T        0
O       14.03538366      14.03044321      -0.79416906  T        0
O        7.90987660      13.17480027      -4.58950066  T        0
O       16.53597696      16.44741484      -0.76946990  T        0
O       12.79460528      10.27190489      -1.83764270  T        0
O       10.25817550      12.85719128      -2.02643152  T        0
O       17.58863515      20.33143508      -2.02642894  T        0
O       20.21229261      17.69980340      -1.82191939  T        0
O       12.13421903      15.84569870      -0.13804347  T        0
O       15.81304580      12.21056644       0.11916242  T        0
O        6.00316849      11.98749904      -3.45098913  T        0
O        9.83536423      12.24172897      -6.26687281  T        0
O       18.36174265      14.61604194       0.04412499  T        0
O       14.84057682      18.35129217      -0.04213021  T        0
O       12.35072055      12.22444492      -3.52274409  T        0
O       18.32074315      18.21780378      -3.49931773  T        0
O       16.54490888      13.94493901      -1.70175774  T        0
O       14.12963050      10.29844174      -4.25621744  T        0
O       16.52858335      19.97096203      -4.49325330  T        0
O        7.68503403      13.53066040      -1.91625553  T        0
O       14.04597889      16.52390404      -1.79841363  T        0
O       10.48634150      13.94654246      -4.46217288  T        0
O       16.53772906      22.80135114      -1.66516068  T        0
O       20.18305523      16.38059967      -4.26470611  T        0
Si      15.27817672      13.02691753      -1.20260221  T        0
Si       6.89221742      13.36838973      -3.33077275  T        0
Si      15.33208247      17.41074005      -1.30446318  T        0
Si      13.10318134      15.25464493      -1.34429197  T        0
Si       9.24137754      13.54280108      -5.45387668  T        0
Si      17.49632185      15.19088893      -1.22675019  T        0
Si      11.30621633      13.42696742      -3.14022134  T        0
Si      17.09265318      21.44071765      -0.92807342  T        0
Si      19.31040327      17.00282439      -3.01686662  T        0
Si       9.03229783      13.28643920      -1.00708737  T        0
Si      13.50718504      11.18589069      -3.01503109  T        0
Si      17.09019163      19.23170327      -3.13737845  T        0
H       13.27046745      19.56837449       8.65412958  F        0
H       10.92750145      17.22544079       8.65411313  F        0
H       10.92752655       9.64346076       1.07209470  F        0
H        3.54426649      23.32461365       4.82834019  F        0
H       20.85246702      19.56839425       1.07212032  F        0
H       12.70105063      11.39908942       3.24464026  F        0
H        5.29989873      21.15211322       6.60185973  F        0
H       19.09683476      17.79487503       3.24462109  F        0
H       12.70105695      15.05290863       6.89848520  F        0
H       15.44301084      17.79487314       6.89846715  F        0
H       13.68673605      23.15239550       8.63276462  F        0
H        3.56560809      22.90833918       1.24432189  F        0
H        7.34350493      16.80917637       8.63275504  F        0
H       20.83112530      23.15241223       1.48839475  F        0
H        7.34352333       9.66479174       1.48837704  F        0
H        7.17131740      26.95194124       4.82834527  F        0
H        9.34383450      25.19630608       6.60185911  F        0
H        7.58756870      26.93058106       1.24433203  F        0
H        5.57209393      15.05833723      -4.28746901  F        0
H        7.91114242      15.05832763      -6.62654864  F        0
H       13.27048028       9.64343273      -1.27111845  F        0
H       20.85247350      17.22542539      -1.27111836  F        0
H       15.44303658      11.39914474       0.50251735  F        0
H        5.29990407      11.69569909      -2.85482259  F        0
H        9.34382502      11.69567665      -6.89874716  F        0
H       19.09678362      15.05286173       0.50248505  F        0
H       13.68673308       9.66480596      -4.85513656  F        0
H       16.80913871      20.83112323      -4.85512183  F        0
H       16.80916481      23.15240172      -2.53384338  F        0
H       20.83112308      16.80913882      -4.85512183  F        0
Fe      12.03666847      20.67543371       1.39123337  T        0
Fe      11.80672401      17.79350146       0.43997684  T        1
O       11.46880696      19.59075735       0.06019715  T        2
