145
Lattice="20.102 0.0 0.0 0.0 19.731 0.0 0.0 0.0 13.253" Properties=species:S:1:pos:R:3:move_mask:L:1:tags:I:1 i=77 E=-3472.0240129048 regions="_JSON [\"Active\"]" n_terminators=28 energy=-1013.6140486907155 pbc="F F F"
O       10.20944151       8.48647174       9.68157342  T        0
O        9.89372570      11.24222014       3.57009389  T        0
O        1.98784273      11.12876828       4.03799039  T        0
O        7.66799661       8.72197794      10.43039482  T        0
O       18.11671470       8.60761996       9.21559910  T        0
O       12.43560354      11.01417719       2.82250306  T        0
O        8.29358717       7.07522344       8.41381752  T        0
O       11.80253130      12.66093836       4.83929755  T        0
O        8.54941866       9.68965822       8.03693332  T        0
O       11.55717703      10.04651752       5.21710886  T        0
O        3.33092012      10.70528810       6.23274415  T        0
O        6.65036907       8.96909673      12.85408756  T        0
O       16.77449584       9.02612239       7.01888392  T        0
O       13.45065038      10.76171808       0.39771717  T        0
O        3.39295167       8.85718957       4.29239021  T        0
O        6.39322830      10.95150507      11.00959912  T        0
O       16.70789228      10.87650291       8.95576923  T        0
O       13.70635799       8.78153879       2.24405683  T        0
O        4.71504714      11.16032710       4.02628453  T        0
O        5.02142019       8.69395277      10.71653700  T        0
O       15.38996292       8.57130744       9.22656715  T        0
O       15.08105156      11.03786491       2.53382012  T        0
O        4.05067718      12.40060318       8.14005485  T        0
O        6.09040905       7.32902146       1.28993865  T        0
O       16.05111800       7.33140993       5.11168277  T        0
O       14.00877463      12.40144155      11.96271831  T        0
O        5.79911493      10.52331951       7.22831303  T        0
O        3.88308613       8.35269394       0.26690374  T        0
O       14.30464637       9.20799319       6.02782724  T        0
O       16.22129777      11.38414644      12.97722406  T        0
O        3.68580612       9.87917045       8.72091215  T        0
O        5.39822517       9.88464455       1.84933495  T        0
O       16.41462550       9.85213620       4.53031096  T        0
O       14.70459686       9.84701989      11.40241430  T        0
O        7.93507243      12.42262617       7.76573553  T        0
O       12.16928604       7.31003529       5.48631035  T        0
O        8.38879225      10.62980030       5.65009898  T        0
O       11.71569635       9.10301963       7.60319934  T        0
O        7.25889117      11.18938460       3.24113135  T        0
O        2.47191043       8.07524089      10.23792639  T        0
O       12.84543555       8.53970369      10.01117017  T        0
O       17.62932382      11.65576752       3.01276113  T        0
O        8.59827078       8.89433872       3.67951855  T        0
O       11.50337802      10.83443002       9.57648296  T        0
O        5.31821850      12.61995244       1.97843841  T        0
O        4.36408018       7.28361326       8.56015075  T        0
O       14.78808432       7.11254622      11.27612972  T        0
O       15.73771514      12.44776445       4.69142940  T        0
O        9.93498982      12.99774981       9.46112801  T        0
O       10.16602571       6.73101448       3.79559646  T        0
O        2.31531767       6.43321671       3.82828230  T        0
O        7.44470850      13.29556355      10.25025966  T        0
O       17.78735321      13.29905882       9.42447624  T        0
O       12.65424503       6.43746836       3.00108793  T        0
O        8.39397413      14.90127117       8.28609630  T        0
O       11.71315331       4.82944966       4.96632431  T        0
O        3.74553648       6.81356226       5.99718550  T        0
O        6.55154299      13.09578756      12.65761465  T        0
O       16.35507200      12.92315236       7.25514887  T        0
O       13.54880736       6.63861523       0.59409488  T        0
O        4.98090963       6.84633100       3.65574462  T        0
O        4.78095581      13.01449469      10.63937862  T        0
O       15.12170100      12.88803376       9.59746242  T        0
O       15.31844823       6.71776642       2.61322388  T        0
O        4.22001370       4.81835186       7.78541752  T        0
O       15.87097766      14.91355385       5.46278953  T        0
O        6.20841004       6.38016811       6.85350987  T        0
O       13.89086161      13.34389310       6.39856518  T        0
O        8.42875041       4.84570713       6.94048238  T        0
O       11.67240376      14.88380427       6.32957451  T        0
O        8.46928206       7.27438731       5.78851501  T        0
O       11.62796995      12.45151141       7.46505031  T        0
O        7.57290219       6.46505409       3.37269312  T        0
O        2.20784247      13.35185317       9.94764327  T        0
O       12.52913859      13.26440768       9.87798791  T        0
O       17.89262443       6.37881538       3.30330249  T        0
O        4.04413826      14.89128304       8.79460915  T        0
O        5.88913447       4.80774423       2.11482349  T        0
O       16.05620748       4.84036386       4.45692655  T        0
O       14.20912064      14.92329174      11.13951504  T        0
Si       8.65120802       8.48496126       9.16577299  T        0
Si      11.45147922      11.24940263       4.08665973  T        0
Si       3.36565214      10.45551194       4.63119638  T        0
Si       6.40799108       9.34436560      11.27104262  T        0
Si      16.73817793       9.27756644       8.62041542  T        0
Si      13.69347983      10.38838197       1.98106517  T        0
Si       4.26081003      10.88755057       7.56510004  T        0
Si       5.43310004       8.72066107       0.71767037  T        0
Si      15.84220170       8.84417045       5.68785907  T        0
Si      14.67034406      11.01130744      12.53373640  T        0
Al       7.47223983      10.88636216       7.18704414  T        0
Al      12.63116563       8.84622148       6.06590667  T        0
Si       8.50480417      10.49240311       4.01102331  T        0
Si      11.59874593       9.23674928       9.24238662  T        0
Si       5.69982669      11.21405795       2.73477085  T        0
Si       3.90090076       8.49238999       9.54135946  T        0
Si      14.40466378       8.51685052      10.51771201  T        0
Si      16.20055033      11.23901898       3.70989785  T        0
Si       8.42069634      13.39653800       8.93693286  T        0
Si      11.68183241       6.33487627       4.31690335  T        0
Si       3.60904340       7.25115378       4.43188799  T        0
Si       6.28355580      12.57869027      11.12131690  T        0
Si      16.49278650      12.48287767       8.81988008  T        0
Si      13.81603217       7.15430431       2.13107402  T        0
Si       4.63147859       6.32767644       7.28024352  T        0
Si      15.46740651      13.40323062       5.97108217  T        0
Si       7.82705849       6.37232334       7.00903916  T        0
Si      12.27198666      13.35692773       6.24710269  T        0
Si       8.70786020       7.33026469       4.15755395  T        0
Si      11.39253304      12.39808209       9.09727995  T        0
Si       6.12930440       6.35792710       2.61640134  T        0
Si       3.76696707      13.39301128       9.40212550  T        0
Si      13.97149382      13.37315061      10.63641905  T        0
Si      16.33354681       6.33869608       3.84952871  T        0
O       13.76108551      10.31567701      13.71238951  T        0
O        6.34899911       9.41388537      -0.45719166  T        0
H        1.81269882      11.30123319       3.09859993  F        0
H       18.28958667       8.42947104      10.15436836  F        0
H        6.01931354       8.91222751      13.59787507  F        0
H       14.08297195      10.81847671      -0.34490677  F        0
H        3.12887899       8.92429365       0.49683426  F        0
H       16.97340651      10.80641058      12.75613404  F        0
H        1.92726146       8.79770260      10.59110356  F        0
H       18.17502404      10.93300163       2.66186473  F        0
H        5.53537813      12.95496052       1.09262639  F        0
H       14.56690736       6.77574372      12.16034191  F        0
H        2.04924741       6.48050321       2.89306910  F        0
H       18.05303808      13.25020103      10.35989921  F        0
H        8.48702655      15.71151028       8.80063176  F        0
H       11.61525895       4.01919395       4.45233654  F        0
H        5.86807409      12.98161584      13.33116226  F        0
H       14.23421140       6.74908840      -0.07819396  F        0
H        4.37526294       4.01828352       7.26036481  F        0
H       15.72702255      15.71242072       5.99260349  F        0
H        7.92514400       4.01763560       6.85279547  F        0
H       12.17714149      15.71306863       6.40017283  F        0
H        1.73086689      12.60761804      10.35624453  F        0
H       18.37141860       7.12308619       2.89672377  F        0
H        4.05997682      15.72757570       9.28699687  F        0
H        5.99116592       4.00312854       2.66051272  F        0
H       16.04230867       4.00312851       3.96597142  F        0
H       14.11111957      15.72757569      10.59245558  F        0
H       13.51650676      10.58100877      14.61047976  F        0
H        6.58577874       9.14969547      -1.35751146  F        0
Fe      10.05421788       9.87311664       6.62882621  T        1
