136
Lattice="19.123 0.0 0.0 0.0 14.277 0.0 0.0 0.0 7.5465" Properties=species:S:1:pos:R:3:move_mask:L:1:tags:I:1 i=128 E=-2603.9155142701 regions="_JSON [\"Active\"]" n_terminators=32 energy=-911.6738712522166 pbc="F F F"
O        5.95650332       1.13344001       1.40570751  T        0
O       15.62436553       8.43318075       5.87438278  T        0
O        3.59353738       8.41996508       5.74475018  T        0
O        6.11140358      13.12888963       1.52642079  T        0
O       15.91905633       5.81630568       5.73045987  T        0
O       13.07324117      13.12716133       1.47200526  T        0
O        3.37515889       5.73645349       5.84730682  T        0
O       13.20827249      13.15574304       6.15690493  T        0
O        3.30294508       5.82309489       1.66449913  T        0
O        5.99567863      13.18065706       6.14006233  T        0
O       15.87178160       5.86441284       2.01185057  T        0
O        3.25356237       8.53635160       1.55112033  T        0
O        6.27598019       1.20819198       5.71138465  T        0
O       15.60475559       8.48311509       1.69940705  T        0
O        7.19601468       3.27796364       2.53303789  T        0
O       17.27243974      10.53181548       6.23952897  T        0
O       11.61066713       3.23538003       2.39555354  T        0
O        2.22257587      10.71839560       6.21586453  T        0
O        7.27737074      10.86546281       2.50075787  T        0
O       11.97367000      10.72939386       2.15480487  T        0
O        1.97068037       3.41856717       6.05851769  T        0
O       12.12467328      10.90198383       5.01583026  T        0
O        1.97777251       3.46248152       1.45079717  T        0
O        7.38500641      11.01262927       5.16116842  T        0
O       11.60104048       3.25474993       5.15146434  T        0
O        2.03289550      10.94492395       1.47976118  T        0
O        7.24226253       3.71392434       5.20183030  T        0
O       17.23003173      10.61307035       1.37565521  T        0
O        6.68351355       3.22561715      -0.04690186  T        0
O       16.29200458       9.98505363       3.81589339  T        0
O        3.07465814      10.10381768       3.74808400  T        0
O        6.71236587      11.06881325      -0.04822586  T        0
O       13.32620239      11.03398161      -0.19143136  T        0
O        3.03702574       4.13054611       3.74509077  T        0
O        4.66721212       3.50394551       1.74892137  T        0
O       14.67114002      10.94076464       5.77208086  T        0
O        4.81746549      10.78238484       5.65259208  T        0
O        4.70954796      10.80548780       1.77349861  T        0
O       14.63239297      10.98696220       2.03890367  T        0
O        4.62838631       3.36222641       5.75513849  T        0
O       11.53475535       8.26130455       3.84353324  T        0
O        7.57276400       8.56623117       3.96382596  T        0
O       11.63997837       5.60720838       3.75704188  T        0
O        7.57284507       5.74701501       3.67757545  T        0
O        9.57118759      10.05692791       3.85442961  T        0
O        9.51892152       3.93774187       3.75097199  T        0
O       13.52904308       6.92252634       5.09833194  T        0
O        5.75951679       6.82431122       5.36985281  T        0
O        5.37347389       7.29058877       2.50767145  T        0
O       13.46716189       7.02516433       2.41372087  T        0
O       14.33521985       6.79177521      -0.05404694  T        0
O        4.93862334       7.13248172      -0.05863485  T        0
Si       6.08830428       2.77741443       1.41501817  T        0
Si      15.94436265       9.98492837       5.42349965  T        0
Si       3.40952383      10.00956921       5.34514281  T        0
Si       6.16100165      11.47708787       1.44791603  T        0
Si      13.20331050      11.47280437       1.39921444  T        0
Si       3.24544096       4.18026463       5.35547147  T        0
Si      13.15488921      11.49513739       6.10126010  T        0
Si       3.25657506       4.24938576       2.12104388  T        0
Si       6.17624132      11.53882526       6.14723168  T        0
Si       3.27998387      10.07755776       2.11936954  T        0
Si       6.12130256       2.80715659       6.05818054  T        0
Si      15.93359793      10.02071139       2.21164598  T        0
Al      11.39040038      10.11953501       3.66766199  T        0
Si       7.91925026      10.19279465       3.84129600  T        0
Si      11.16470294       4.03242361       3.76675437  T        0
Si       7.91179594       4.15553539       3.69101346  T        0
Si      14.84055639       7.01955338       6.08636162  T        0
Si       4.33087888       7.02922923       6.17233349  T        0
Si       4.20255785       7.18943570       1.41458858  T        0
Si      14.83808590       7.05461500       1.49643505  T        0
Si      12.57663085       6.96300844       3.77602478  T        0
Al       6.50094655       7.16235996       3.75979434  T        0
O        6.28393288      13.05977766       9.74137826  T        0
O        3.17963203       5.85552277       9.68084987  T        0
O        3.48945109       8.47445064       9.64017779  T        0
O        7.47733656      10.75735225      10.16163331  T        0
O        7.56014868      10.80485922      12.88028586  T        0
O        2.32434164      10.79361956       8.86108997  T        0
O        6.63515052       3.22565475       7.57648505  T        0
O        2.78249638      10.38668926      11.41166767  T        0
O        6.52361139      11.21870131       7.71040748  T        0
O       12.63788934      10.95691403       7.57858032  T        0
O        4.84566473      10.76490511       9.71929544  T        0
O        7.32079330       8.47078496      11.53848528  T        0
O        1.82036080      13.11293865       7.49330333  T        0
O        7.79490457       5.87277629      11.44641501  T        0
O        9.62832093       9.75428748      11.55517616  T        0
O       -0.01088483      11.11555422       7.65689793  T        0
O        5.73109764       6.74438813      12.91390678  T        0
O        5.61428468       6.90938116      10.21734203  T        0
O       14.23356808       6.87102147       7.61672604  T        0
O        4.70245481       7.01161069       7.76034764  T        0
Si       6.26616097      11.46509128       9.32038281  T        0
Si       3.36941750      10.09450914       9.89813631  T        0
Si       8.00139035       9.96913808      11.51583920  T        0
Si       1.58840087      11.46882433       7.55189120  T        0
Si       4.25416662       7.06479145       9.33722288  T        0
Si       6.60216724       7.00576682      11.52754712  T        0
H        5.61083456       0.52083913       2.07985367  F        0
H        5.61112307      13.75835362       2.07975607  F        0
H       15.75636517       4.89339805       5.45628994  F        0
H       13.50958039      13.75682243       2.07498241  F        0
H       13.51084140      13.75504172       5.44776650  F        0
H        5.62495998      13.75277707       5.44935724  F        0
H       15.75706449       4.89440344       2.08043705  F        0
H        5.62509051       0.52255101       5.44942550  F        0
H       17.28974254      11.12548174       7.01862795  F        0
H       12.44565577       3.15588527       1.90033815  F        0
H        1.81954193       3.15353441       6.98813474  F        0
H        1.83183800       3.14857954       0.53722786  F        0
H       12.44354748       3.15657450       5.63339447  F        0
H        1.83154049      11.12909684       0.54034962  F        0
H       17.29120144      11.12876736       0.54010345  F        0
H        6.35952436       2.97904956      -0.93427223  F        0
H        6.36236324      11.29726414      -0.93275871  F        0
H       12.76174962      11.29928001      -0.93393629  F        0
H       14.60982961       7.13673871      -0.92783774  F        0
H        4.51175007       7.13509558      -0.92932085  F        0
H        5.61112307      13.75835362       9.62625607  F        0
H        3.36661743       4.89904760       9.62155888  F        0
H        6.67998430      11.11604137      13.18119228  F        0
H        6.35949513       2.97597070       8.47938261  F        0
H        3.19647477      10.11404518      12.25127207  F        0
H       12.76333233      11.30075111       8.47967776  F        0
H        2.56257806      13.76129914       7.54737584  F        0
H        7.80677964       4.90364681      11.30820371  F        0
H       10.52611047      10.07370688      11.30853277  F        0
H       -0.96427299      11.34215683       7.54753770  F        0
H        4.87489857       7.13453431      13.17640583  F        0
H       14.61405599       7.13800201       8.47661577  F        0
Fe       9.58957961       8.00458129       4.55138183  T        0
Fe       7.49991377       5.78783162       6.07032934  T        1
O        9.42327623       6.58825014       5.92016589  T        2
O        8.52691400       7.12955099       6.96313218  T        3
