138
Lattice="24.397 0.0 0.0 0.0 24.397 0.0 0.0 0.0 24.397" Properties=species:S:1:pos:R:3:move_mask:L:1:tags:I:1 i=41 E=-6943.8331748197 regions="_JSON [\"Active\"]" n_terminators=32 energy=-931.7246206566945 pbc="F F F"
O       21.71804223       2.38029525       0.17786790  T        0
O       21.77086782       6.07098186       3.54229075  T        0
O       20.99312381      12.44471831       3.55348833  T        0
O       21.02120840       3.43809207      12.43271004  T        0
O       21.77462367       0.24674130       2.39101627  T        0
O       17.97524527       9.52624364       3.64752905  T        0
O       21.76873549       3.47790675       5.98877382  T        0
O       17.78120639       4.00764129       9.79146273  T        0
O       23.88479958       1.76262644       1.81836770  T        0
O       22.74654142       5.33672802       8.01738134  T        0
O       22.60981139       7.91430901       5.31678610  T        0
O       19.95724407      10.57904730       5.16730303  T        0
O       23.63940753       4.30248350       4.31072104  T        0
O       20.05722363       5.20396729      10.69633909  T        0
O       20.78418129       5.91544825       5.86869191  T        0
O       18.33056478       8.66231381       6.19268727  T        0
O       21.88895543      12.21348077       6.14811918  T        0
O       20.98350894      -0.12232059      -0.10787775  T        0
O       24.33626970       2.65016972       6.32246220  T        0
O       24.32050201       6.30473327       2.66266997  T        0
O       18.44924921       6.41761835       8.95718535  T        0
O       22.01746292       6.00774709      12.39713728  T        0
O       22.70993482       4.33392073       1.80404918  T        0
O       22.65845467       4.36694077      10.51823143  T        0
O       20.08996924       8.03078327       4.37319568  T        0
O       22.55876372      10.42014232       4.42295150  T        0
O       22.86817049       1.72145268       4.30603913  T        0
O       19.97528554       4.37223465       8.17090351  T        0
Al      23.33379715       3.05942341       0.77434402  T        0
Si      23.63308110       4.88103038       9.29571589  T        0
Si      21.32077985       7.05870328       4.81849213  T        0
Si      21.32177877      11.43303860       4.82132063  T        0
Si      23.28045927       0.84438055       2.98099605  T        0
Si      19.07029326       9.23735376       4.84798364  T        0
Al      21.33717469       4.79400806       7.19168555  T        0
Si      23.55381319       9.21159356       4.90903108  T        0
Si      23.18003581       3.03151335       5.25214878  T        0
Si      19.08209431       4.95706582       9.39124692  T        0
Si      23.15160357       5.24318188       3.05256248  T        0
Si      21.40974395       4.76279376      11.50977781  T        0
O       24.62901915       3.64554655       8.81610321  T        0
O       24.57269634       8.75583000       3.70045995  T        0
O       26.30572565       6.72339408       4.26338031  T        0
O       26.33012085       4.22764667       6.73380953  T        0
O       24.39346101       9.73902747       6.21747528  T        0
O       24.56228622       6.11002361       9.89345417  T        0
O       26.25949290       8.01604764       1.81620703  T        0
O       26.25459063       1.78355531       8.03704144  T        0
Si      25.39349493       7.45789053       3.10235677  T        0
Si      25.40564487       3.08740772       7.49398305  T        0
O       24.74289139       2.40931530      -2.84957009  T        0
O       26.23648910       1.79046943      -0.68423830  T        0
O       24.38056989      -0.15505081      -3.64458254  T        0
O       26.52633404       4.17131298      -2.05547271  T        0
Si      25.47871973       3.01905592      -1.50040721  T        0
O       24.72966328      -2.80122073       2.39866640  T        0
O       26.36114260      -0.65686260       1.91826773  T        0
O       24.38094739      -3.63880273      -0.14539451  T        0
O       26.24712049      -1.96325401       4.34640140  T        0
Si      25.42530827      -1.44931730       3.01804012  T        0
O       18.31799150       2.56148037      -3.64199846  T        0
O       20.82468832       2.44135982      -6.25971735  T        0
O       15.67871065      -0.13771427      -3.68605840  T        0
O       20.16210290       0.73119179      -4.34964161  T        0
O       22.71717275       0.97060567      -1.85153805  T        0
O       18.86402572       1.84448079      -8.05868195  T        0
O       16.32431869       1.90443095      -5.32298762  T        0
O       24.39241054       3.59489769      -0.46073556  T        0
O       18.16855137       0.06939842      -2.69451814  T        0
O       22.00762729      -0.00964431      -6.20884276  T        0
O       18.31720945       3.48643821      -6.14094200  T        0
O       20.10158650       1.67173732      -1.85606752  T        0
O       22.65814631       1.71459374      -4.40463211  T        0
O       20.19030362       4.28032604      -7.95772870  T        0
O       16.57697197       4.41915521      -4.29393044  T        0
O       13.82782547       1.68526463      -4.30907848  T        0
Si      19.18027449       1.26156665      -3.15301897  T        0
Si      21.39284351       1.22352582      -5.32211773  T        0
Si      23.64748772       1.24486884      -3.18958205  T        0
Si      19.54884162       3.02004428      -7.11686774  T        0
Si      15.13258285       0.85830135      -4.88601042  T        0
Si      21.38690388       1.22427228      -0.96320455  T        0
Si      17.36069989       3.09286485      -4.86783901  T        0
O       18.36663823      -3.52021724       2.76937500  T        0
O       15.55466728      -3.59291723      -0.15058932  T        0
O       20.99632620      -6.38838737       2.52443759  T        0
O       22.69920917      -1.85318319       0.99174808  T        0
O       20.11031392      -4.40807540       0.90934123  T        0
O       24.24361057      -0.38455831       3.42632342  T        0
O       18.13198691      -2.79334937       0.16710194  T        0
O       21.95425851      -6.16061654      -0.02866549  T        0
O       20.10572265      -1.83583447       1.71396766  T        0
O       22.66407343      -4.41616839       1.72760642  T        0
Si      21.38910858      -0.93873771       1.24880634  T        0
Si      21.39122216      -5.36512673       1.28947584  T        0
Si      23.62936700      -3.18989908       1.24488453  T        0
Si      19.16978386      -3.15341482       1.37338114  T        0
O       17.67929800      -1.81519042      -4.40437067  T        0
O       17.61788344      -4.47544758      -1.74178227  T        0
O       14.62958702      -0.02415430      -6.18664332  T        0
O       16.60474518      -1.94846588      -1.90658010  T        0
Si      17.00015254      -0.96531133      -3.16219366  T        0
Si      16.97025175      -3.20313439      -0.91135595  T        0
H       20.10951523      12.72546585       3.23923157  F        0
H       20.10951519       3.23923103      12.72546793  F        0
H       17.77043279      10.38640226       3.23924444  F        0
H       17.77043311       3.23924387      10.38640412  F        0
H       17.49826767       8.95372279       6.60186186  F        0
H       21.54216027      12.99764967       6.60187561  F        0
H       17.49826771       6.60186080       8.95372435  F        0
H       21.54216028       6.60187434      12.99765198  F        0
H       26.95194123       7.17131746       4.82834527  F        0
H       26.95194124       4.82834452       7.17131883  F        0
H       25.19630608       9.34383456       6.60185911  F        0
H       25.19630604       6.60185806       9.34383627  F        0
H       26.93058105       7.58756876       1.24433203  F        0
H       26.93058086       1.24433163       7.58757011  F        0
H       26.95192867       1.27083937      -1.07240246  F        0
H       25.19622735      -0.50276655      -3.24494277  F        0
H       26.93057835       4.85486043      -1.48866112  F        0
H       26.95192866      -1.07240650       1.27083969  F        0
H       25.19622853      -3.24494603      -0.50276481  F        0
H       26.93057847      -1.48866524       4.85486109  F        0
H       19.36968740       1.27081557      -8.65438303  F        0
H       21.54221652      -0.50278066      -6.89866328  F        0
H       19.78593015       4.85484827      -8.63303166  F        0
H       15.76396555       4.85484859      -4.61106623  F        0
H       13.44267515       2.53358758      -4.61109248  F        0
H       17.77043326      -4.28747560       2.85995000  F        0
H       15.43756593      -4.28746062       0.52708992  F        0
H       20.10952426      -6.62656664       2.85995001  F        0
H       21.54221602      -6.89866750      -0.50277915  F        0
H       17.22541613      -2.55520754      -4.82860724  F        0
H       17.22541616      -4.82861063      -2.55520368  F        0
H       15.05289904      -0.79957238      -6.60212108  F        0
Fe      20.79775196       2.28658130       1.97233021  T        0
Fe      20.50462940       4.31173770       4.48870334  T        1
O       19.84431694       3.16367138       3.22989031  T        2
