138
Lattice="20.102 0.0 0.0 0.0 19.731 0.0 0.0 0.0 13.253" Properties=species:S:1:pos:R:3:move_mask:L:1:tags:I:1 i=77 E=-3472.0240129048 regions="_JSON [\"Active\"]" n_terminators=34 energy=-923.3164059075382 pbc="F F F"
O       10.07799401       8.21090075       9.35341683  T        0
O        9.89159153      18.83218476       3.98540075  T        0
O       10.05080531      10.84283946       3.80218076  T        0
O        2.36342590      11.42003092       3.88788324  T        0
O        7.67122061       8.63026305      10.43678303  T        0
O       12.10450785      18.53931402       2.51354704  T        0
O       12.49633024      10.83600179       2.80291280  T        0
O        7.81825484       6.99394205       8.39287253  T        0
O       11.88911111      17.36485287       4.93042762  T        0
O       11.82283175      12.66351751       4.71268459  T        0
O        8.32476907       9.63665131       8.01949828  T        0
O       12.27138339      20.05322470       4.63346753  T        0
O       12.14233991      10.19453410       5.39860800  T        0
O        3.63657778      10.70600457       6.03418878  T        0
O        6.47863215       8.62282231      12.78565679  T        0
O       15.98395058       8.56517065       7.55583793  T        0
O       13.88760916      11.15963442       0.55005508  T        0
O        3.12893622       8.87467378       4.05842681  T        0
O        6.22183081      10.76655188      11.16101505  T        0
O       13.94560817       8.77503645       1.72907746  T        0
O        5.01579836      10.78554557       3.78266291  T        0
O        5.00465391       8.50834794      10.50895198  T        0
O        4.94403529      18.48172258       4.15351306  T        0
O       15.13836401      10.93166407       2.90073918  T        0
O        3.66795778      12.33355015       8.15946350  T        0
O       16.35289189       7.21838955       5.26549420  T        0
O        5.87678526      11.05474779       7.43458611  T        0
O        5.84930869      19.24553130       7.57373533  T        0
O       13.99227330       8.28056726       5.81179688  T        0
O        3.81433521       9.69377471       8.45010993  T        0
O        5.67046062      10.16242396       1.21312538  T        0
O       15.99390594       9.92667596       5.23874416  T        0
O        8.25187584      12.61688649       7.74283433  T        0
O        7.71110734      17.36995327       8.07550343  T        0
O       11.54478758       7.70586724       4.95339464  T        0
O        8.09291437      11.23026749       5.57628387  T        0
O        7.91574957      18.67065068       5.82983324  T        0
O       11.96082589       8.58496263       7.50064179  T        0
O        7.52916272      10.99586792       2.99043620  T        0
O        2.37623234       8.10597626      10.08487865  T        0
O        7.34780190      18.58579188       3.19312439  T        0
O       12.57686904       8.34626573      10.12012830  T        0
O       17.76011640      10.55902542       3.45302294  T        0
O        8.27156921       8.84648457       4.45478906  T        0
O       11.31793101      10.56655449       9.14735158  T        0
O       12.00411973      19.01041648       9.42128611  T        0
O        5.68013897      12.68516340       2.01449860  T        0
O        3.97029251       6.96133203       8.49815281  T        0
O        5.50046738      16.94844029       2.02377404  T        0
O       16.21427091      17.07248991       4.55873764  T        0
O       16.34210446      12.50449260       4.71100743  T        0
O        9.98837613      17.17977051       9.44793197  T        0
O       10.12193038      12.89563789       9.67908738  T        0
O        7.70899699      16.79546714      10.70016822  T        0
O        7.53699503      12.91202684      10.26045375  T        0
O        8.58455896      14.97504086       8.88260717  T        0
O        6.52000936      13.03159424      12.61765306  T        0
O       16.81069469      12.69474390       7.33068904  T        0
O       16.60831768      17.21258481       7.21307105  T        0
O        4.86906534      12.93412724      10.48988743  T        0
O       16.08055546      14.87112299       5.93678399  T        0
O       14.30586472      12.93661437       6.38016103  T        0
O       14.15634645      16.74788216       6.29218162  T        0
O       12.22795095      14.96718292       5.86667558  T        0
O       11.75015726      12.74983049       7.64774517  T        0
O       11.85392739      17.06769374       7.55786521  T        0
O        2.25297928      13.41197414      10.18909066  T        0
O       12.77236303      12.41341065      10.18506398  T        0
O       12.36989662      16.43060123      10.13194882  T        0
O        4.02426751      14.87706503       8.81013197  T        0
Si       8.47209373       8.38111113       9.02248947  T        0
Si      11.51993714      18.70723759       4.04534502  T        0
Si      11.62587234      11.11324637       4.15269497  T        0
Si       3.54898168      10.43002116       4.43927703  T        0
Si       6.33511919       9.13342947      11.22527515  T        0
Si      13.87432346      10.40281860       2.00904479  T        0
Si       4.28123639      10.94928571       7.51577371  T        0
Si      15.60733459       8.51897647       5.95360316  T        0
Al       7.57432258      10.97283755       7.29072430  T        0
Si       7.44077927      18.83734528       7.38509682  T        0
Si      12.42251576       8.68533845       5.96131964  T        0
Si       8.50165182      10.45309768       4.18362435  T        0
Si       8.32870024      19.21976171       4.35046766  T        0
Si      11.49931650       8.95075831       9.03817639  T        0
Si       5.96453254      11.14943946       2.50459312  T        0
Si       3.83940907       8.34592931       9.36875496  T        0
Si       5.77309504      18.42018250       2.71985772  T        0
Si      16.30034478      11.00361752       4.05376658  T        0
Si       8.48795760      16.56856949       9.26781057  T        0
Si       8.64704334      13.36438720       9.17644081  T        0
Si       6.26706560      12.38808532      11.12661242  T        0
Si      15.85880506      13.25134653       6.09703971  T        0
Si      15.75595842      16.46334891       6.01528745  T        0
Al      12.63337751      13.22359146       6.26227335  T        0
Si      12.55188137      16.55407631       6.18819211  T        0
Si      11.51426917      12.18240688       9.14065926  T        0
Si      11.55615375      17.44886290       9.12748253  T        0
Si       3.71331571      13.37385646       9.41639633  T        0
O        8.40672467      20.01048683       8.04500630  T        0
O        5.29878258      19.56720032       1.62289749  T        0
O        8.11853664      20.85184000       4.43420207  T        0
H        1.81269882      11.30123319       3.09859993  F        0
H       13.03074803      18.74401529       2.26762503  F        0
H        7.84356088       6.72376138       7.45668423  F        0
H       12.34310542      20.30287261       5.56688324  F        0
H        6.01931354       8.91222751      13.59787507  F        0
H       16.63692148       9.14969546       7.98396390  F        0
H       14.08297195      10.81847671      -0.34490677  F        0
H        3.60112680       8.06005012       4.30646574  F        0
H       13.65226955       8.06005012       2.32001841  F        0
H        4.05829635      18.79668859       4.41071282  F        0
H       16.07046274       6.80354447       4.42856960  F        0
H        5.06295559      18.75104696       7.26028496  F        0
H        5.72719027       9.20254625       1.33756862  F        0
H       11.89104871       6.82542533       4.74838322  F        0
H        1.92726146       8.79770260      10.59110356  F        0
H       13.54926599       8.42132791      10.11787432  F        0
H       18.17502404      10.93300163       2.66186473  F        0
H        8.66651872       8.12235896       3.93953912  F        0
H       11.52310955      19.83515307       9.21116341  F        0
H        5.53537813      12.95496052       1.09262639  F        0
H        4.51576461       6.77574371       7.71911054  F        0
H        5.53537813      16.64109584       1.09262638  F        0
H       15.87290964      17.87210703       4.12309272  F        0
H        6.74596320      16.92620537      10.74076342  F        0
H        5.86807409      12.98161584      13.33116226  F        0
H       16.41758072      12.40218664       8.16986141  F        0
H       16.41758072      17.19386972       8.16986141  F        0
H        1.73086689      12.60761804      10.35624453  F        0
H       13.32025657      13.20375310      10.31771692  F        0
H       13.32025658      16.39230324      10.31771692  F        0
H        4.05997682      15.72757570       9.28699687  F        0
H        8.32625906      20.60985804       8.81306681  F        0
H        5.72719026      20.39380587       1.33756863  F        0
H        8.66651872      21.47399316       3.93953912  F        0
Fe       8.41059446      13.26101980       5.85288854  T        0
Fe      10.76522821      14.45800308       4.57933890  T        1
O        8.94963957      14.48831057       4.62111478  T        2
