136
Lattice="19.123 0.0 0.0 0.0 14.277 0.0 0.0 0.0 7.5465" Properties=species:S:1:pos:R:3:move_mask:L:1:tags:I:1 i=128 E=-2603.9155142701 regions="_JSON [\"Active\"]" n_terminators=32 energy=-911.4247319996741 pbc="F F F"
O        5.89948436       1.10780158       1.35549147  T        0
O       15.70564700       8.47490265       5.82924491  T        0
O       13.09507995       1.12713021       1.43418770  T        0
O        3.51793931       8.49464287       5.78363420  T        0
O        6.02477197      13.15219229       1.43741847  T        0
O       15.60789415       5.78308090       5.78443617  T        0
O       13.23622599      13.16596144       1.34717011  T        0
O        3.42429919       5.80304517       5.81631460  T        0
O       13.21131752      13.19609982       6.18942060  T        0
O        3.31930462       5.78626562       1.76297123  T        0
O        6.21553503      13.13428444       5.92114480  T        0
O       15.76604162       5.78813642       1.79685274  T        0
O       12.91696702       1.13819365       5.91950674  T        0
O        3.35662769       8.48792977       1.79608463  T        0
O        5.91358170       1.08062518       6.19578211  T        0
O       15.80684879       8.48990907       1.77241248  T        0
O        7.25686485       3.26351589       2.38798308  T        0
O       17.18770864      10.71082209       6.14000013  T        0
O       11.97336411       3.38913945       2.47482525  T        0
O        1.98924262      10.70810171       6.14857991  T        0
O        7.14782966      10.89235914       2.47948217  T        0
O       17.13338142       3.56810640       6.15471184  T        0
O       11.87292064      11.01973016       2.38758722  T        0
O        1.93167650       3.57306805       6.11346429  T        0
O       11.89561598      11.01899843       5.17234819  T        0
O        1.96466838       3.46515570       1.45400745  T        0
O        7.27386088      10.76502539       5.11573065  T        0
O       17.19562902       3.51369361       1.44344032  T        0
O       11.84832305       3.50199883       5.11220340  T        0
O        1.92743977      10.76191734       1.44304091  T        0
O        7.22739378       3.25454614       5.17386470  T        0
O       17.16701497      10.80598661       1.45619778  T        0
O        6.65001214       3.26758654      -0.06338603  T        0
O       16.11311207      10.17752923       3.80115323  T        0
O       12.47760727       3.25660242      -0.04729743  T        0
O        3.03364548      10.21474096       3.79181162  T        0
O        6.65185136      11.02668470      -0.04538495  T        0
O       16.09376808       4.06249991       3.79418149  T        0
O       12.51763385      10.97939056      -0.05993214  T        0
O        3.03676322       4.09414459       3.78826670  T        0
O        4.65285170       3.46092295       1.75319435  T        0
O       14.50221061      10.87429068       5.81988083  T        0
O       14.53126238       3.40217101       1.72789462  T        0
O        4.66397121      10.92737170       5.78094252  T        0
O        4.59258657      10.87308703       1.72180743  T        0
O       14.45876133       3.35203400       5.78072389  T        0
O       14.48161217      10.82077493       1.78566119  T        0
O        4.62103712       3.40082958       5.82622534  T        0
O       11.57293203       8.45217028       3.58720509  T        0
O        7.40273241       8.48519551       3.64929401  T        0
O       11.72988198       5.78908759       3.66015930  T        0
O        7.54849219       5.82155188       3.58480086  T        0
O        9.45083228      10.04616032       3.55895725  T        0
O        9.67347041       4.22952632       3.55610887  T        0
O       13.48197859       7.23791726       5.05435306  T        0
O        5.64797108       7.04724153       5.05318802  T        0
O        5.56149546       7.10181122       2.33611104  T        0
O       13.56260186       7.17575210       2.33810806  T        0
O       14.59114290       7.13654901      -0.15709366  T        0
O        4.53418218       7.14684770      -0.15977299  T        0
Si       6.09661628       2.75601880       1.39734579  T        0
Si      15.85704338      10.06487510       5.41436890  T        0
Si      13.05724705       2.77785863       1.41115746  T        0
Si       3.31171672      10.07678411       5.39984034  T        0
Si       6.06640346      11.50169316       1.41198471  T        0
Si      15.81317774       4.20033346       5.40215446  T        0
Si      13.04137832      11.51733630       1.40218760  T        0
Si       3.27311407       4.21277354       5.40344663  T        0
Si      13.04009294      11.54457244       6.16596644  T        0
Si       3.25860650       4.19356598       2.17194444  T        0
Si       6.16624323      11.49051079       6.09949253  T        0
Si      15.88944915       4.19970893       2.17687187  T        0
Si      12.95850400       2.78238842       6.09752850  T        0
Si       3.23499620      10.07682088       2.17460562  T        0
Si       6.08398653       2.73174954       6.16989191  T        0
Si      15.87686908      10.08147834       2.18579058  T        0
Al      11.27272692      10.25636203       3.80233207  T        0
Si       7.79631820      10.08589343       3.73458054  T        0
Si      11.32848873       4.19150355       3.73470670  T        0
Al       7.85285490       4.02073810       3.80855038  T        0
Si      14.76431587       7.16095722       6.08517723  T        0
Si       4.36286735       7.11720245       6.08157741  T        0
Si       4.18850650       7.12631132       1.43237377  T        0
Si      14.93627472       7.15199574       1.43553666  T        0
Si      12.62422566       7.17336987       3.67241074  T        0
Si       6.50240540       7.10342608       3.66877188  T        0
O        6.66560891       3.24773019       7.61233692  T        0
O       12.42011111       3.19233091       7.59428231  T        0
O        6.70070915      11.07819293       7.59692703  T        0
O       12.46046068      11.03112179       7.61054971  T        0
O       14.14968043       7.13402913       7.61505339  T        0
O        4.97326380       7.13869422       7.61315455  T        0
O       15.70525269       8.42470765      -2.32180780  T        0
O        3.40353865       8.42158428      -2.31723485  T        0
O       15.73810330       5.85109408      -2.29710278  T        0
O        3.39468571       5.84791591      -2.30372338  T        0
O       13.26769675       7.10359172      -2.34556627  T        0
O        5.85421923       7.12749458      -2.34585100  T        0
Si      14.81939326       7.13273382      -1.77919439  T        0
Si       4.30198243       7.13362763      -1.78104744  T        0
H        5.61083456       0.52083913       2.07985367  F        0
H       13.50938118       0.51971906       2.07492992  F        0
H        5.61112307      13.75835362       2.07975607  F        0
H       13.50958039      13.75682243       2.07498241  F        0
H       13.51084140      13.75504172       5.44776650  F        0
H        5.62495998      13.75277707       5.44935724  F        0
H       13.50975252       0.52161770       5.44778410  F        0
H        5.62509051       0.52255101       5.44942550  F        0
H       17.28974254      11.12548174       7.01862795  F        0
H        1.83343022      11.12554006       7.01950242  F        0
H       17.28979000       3.14560285       7.02339196  F        0
H        1.81954193       3.15353441       6.98813474  F        0
H        1.83183800       3.14857954       0.53722786  F        0
H       17.29134854       3.14797220       0.53999843  F        0
H        1.83154049      11.12909684       0.54034962  F        0
H       17.29120144      11.12876736       0.54010345  F        0
H        6.35952436       2.97904956      -0.93427223  F        0
H       12.76076393       2.97683097      -0.93375646  F        0
H        6.36236324      11.29726414      -0.93275871  F        0
H       12.76174962      11.29928001      -0.93393629  F        0
H        6.35949513       2.97597070       8.47938261  F        0
H       12.76321398       2.97604733       8.47995589  F        0
H        6.35946036      11.30224636       8.48133548  F        0
H       12.76333233      11.30075111       8.47967776  F        0
H       14.61405599       7.13800201       8.47661577  F        0
H        4.50898861       7.14016697       8.47499567  F        0
H       15.75671561       9.37610020      -2.09181162  F        0
H        3.36611374       9.37433505      -2.09115109  F        0
H       15.75636517       4.89339805      -2.09021006  F        0
H        3.36064390       4.89097090      -2.09366187  F        0
H       12.88191441       7.13773895      -3.23957932  F        0
H        6.23944212       7.13797332      -3.24031999  F        0
Fe       9.90714705       8.46588984       2.30646763  T        0
Fe       9.19710780       5.77871638       2.27247906  T        1
O        8.83955734       7.35454388       1.02814139  T        2
O       10.27877993       6.91556812       1.03125263  T        3
