111
Lattice="20.102 0.0 0.0 0.0 19.731 0.0 0.0 0.0 13.253" Properties=species:S:1:pos:R:3:move_mask:L:1:tags:I:1 i=77 E=-3472.0240129048 regions="_JSON [\"Active\"]" n_terminators=26 energy=-746.3586953835209 pbc="F F F"
O       10.13934327       1.16184578       9.63885418  T        0
O       10.21835369       8.66051015       9.73860294  T        0
O       10.07637107      11.29193010       3.59917247  T        0
O        7.66634087       1.08580933      10.46460318  T        0
O        2.12560191      10.99245321       3.96534869  T        0
O        7.93040722       9.34968261      10.85609609  T        0
O        8.13103081       2.18228395       8.08247869  T        0
O        7.70427834       8.13017708       8.60062964  T        0
O        8.38697886      -0.48539342       8.41928866  T        0
O        8.80690246      10.42775130       8.37646434  T        0
O        6.48055384       1.24536999      12.79257490  T        0
O        3.89830623      10.69697915       5.91131290  T        0
O        6.18030594       9.16683408      12.91179611  T        0
O        3.70031281       8.80345670       4.05115384  T        0
O        5.84704731      10.98123832      10.93309544  T        0
O        5.02403642       0.78793550      10.55106473  T        0
O        4.77336737      11.14702152       3.44169830  T        0
O        5.44604871       8.36034290      10.49609088  T        0
O        4.30826626      12.40516150       8.26863464  T        0
O        5.91405114       7.35098763       1.58091893  T        0
O        6.41239339      10.55268604       7.20565177  T        0
O        3.92429269       8.48045333       0.15814065  T        0
O        4.06253089       9.61716311       8.51620588  T        0
O        5.86427295      10.00594077       1.33592742  T        0
O        8.07390814      12.79724587       7.69671334  T        0
O        8.54573961      10.95715102       5.77192305  T        0
O        2.49320928       1.62126515      10.04016345  T        0
O        7.45253705      10.94272175       3.31195766  T        0
O        2.80820820       8.37588072      10.63704866  T        0
O        8.96039661       8.90738040       4.15854923  T        0
O        4.39969005       2.38226592       8.51771536  T        0
O        6.20785005      12.62954204       1.71926184  T        0
O        4.22882264       6.96967562       8.72868344  T        0
O        9.92725349      12.61772845       9.77796423  T        0
O       10.14887838       6.46454482       4.04076899  T        0
O        2.23603942       6.53213044       3.84551988  T        0
O        7.38544740      13.08882848      10.21529304  T        0
O        9.03313001      14.94895785       9.04177516  T        0
O        3.50859705       7.00989515       6.08117352  T        0
O        6.56565612      12.93324751      12.66337269  T        0
O        3.47141971       2.52975563       6.02947541  T        0
O        4.94487866       6.46936020       3.90963543  T        0
O        4.72838120      13.34009131      10.73588948  T        0
O        4.30381301       4.73079967       7.31909902  T        0
O        6.02709314       6.69616437       6.76798386  T        0
O        6.06089419       2.84807438       6.52203960  T        0
O        8.19886605       4.36206895       6.34849765  T        0
O        8.40493939       7.18133574       6.06602940  T        0
O        8.30578112       1.88343575       5.47048098  T        0
O        7.57478685       6.70189765       3.56924175  T        0
O        2.18399069      13.27748362       9.81217498  T        0
O        3.93840471      14.94653262       8.72672456  T        0
O        6.20546318       4.82581240       2.19040437  T        0
Si       8.59017196       1.00533674       9.12046924  T        0
Si       8.69063616       9.14540120       9.39326075  T        0
Si       6.42664507       0.48449409      11.33965102  T        0
Si       3.62205152      10.42733063       4.36340326  T        0
Si       6.37397229       9.50804508      11.34474715  T        0
Al       4.59693287      10.91639827       7.46653199  T        0
Si       5.50941648       8.59029692       0.60718825  T        0
Si       7.93045326      11.23947371       7.25241871  T        0
Si       8.75319994      10.52727838       4.19611874  T        0
Si       3.91339816       1.11121084       9.40790532  T        0
Si       6.06836800      11.16759169       2.45888442  T        0
Si       4.03312023       8.41726421       9.53721917  T        0
Si       8.60222380      13.37592002       9.17196208  T        0
Si       3.59619300       7.22868718       4.44528624  T        0
Si       6.12578373      12.60398185      11.11734928  T        0
Si       4.48462204       6.32807754       7.19881781  T        0
Si       4.57039326       3.12753422       7.09363269  T        0
Al       7.65366948       5.82617912       7.09626333  T        0
Si       7.69997274       2.85585989       6.66063630  T        0
Si       8.80214244       7.30258906       4.46013715  T        0
Si       6.16566625       6.33795884       2.82341469  T        0
Si       3.77371750      13.44101918       9.37596548  T        0
O        5.71668115       7.25034285      14.63751083  T        0
O        3.85064847       9.27159403      14.30591999  T        0
O        6.13214269       9.72614015      15.56762296  T        0
Si       5.44743647       8.85010265      14.35713285  T        0
O        6.43254920       8.41508273      -0.73995904  T        0
O        6.55396443      -1.13638973      11.62940564  T        0
O        3.63092911      -0.23969906       8.49648592  T        0
H       10.95532306       1.01526715       9.12727255  F        0
H       10.95532307       8.85008497       9.12727255  F        0
H       10.94686465      11.30097846       4.04088346  F        0
H        1.81269882      11.30123319       3.09859993  F        0
H        7.75918006      -0.57216837       7.68608506  F        0
H        6.01931354       0.95312461      13.59787507  F        0
H        3.12887899       8.92429365       0.49683426  F        0
H        1.92726146       1.06764952      10.59110356  F        0
H        1.92726146       8.79770260      10.59110356  F        0
H        5.53537813      12.95496052       1.09262639  F        0
H       10.76020325      12.42648900       9.31164420  F        0
H       11.09748793       6.69447189       4.02620164  F        0
H        2.04924741       6.48050321       2.89306910  F        0
H        8.48702655      15.71151028       8.80063176  F        0
H        5.86807409      12.98161584      13.33116226  F        0
H        3.68470477       2.53683452       5.08310689  F        0
H        8.61892989       2.44869843       4.74740482  F        0
H        1.73086689      12.60761804      10.35624453  F        0
H        4.05997682      15.72757570       9.28699687  F        0
H        5.99116592       4.00312854       2.66051272  F        0
H        6.01932001       6.80354450      15.45091456  F        0
H        3.12887899       8.92429365      13.74983426  F        0
H        5.93864452      10.64983954      15.80845558  F        0
H        6.58577874       9.14969547      -1.35751146  F        0
H        6.45001594      -1.80559776      10.93294989  F        0
H        4.32395248      -0.66310163       7.96405278  F        0
Fe       6.53600360       6.77927932       9.61310508  T        0
Fe       6.92298136       8.56693103       6.78955698  T        1
O        7.42075470       5.42890474       8.77688925  T        2
