150
Lattice="19.123 0.0 0.0 0.0 14.277 0.0 0.0 0.0 7.5465" Properties=species:S:1:pos:R:3:move_mask:L:1:tags:I:1 i=128 E=-2603.9155142701 regions="_JSON [\"Active\"]" n_terminators=34 energy=-1016.8789911910776 pbc="F F F"
O        5.89483866       1.10357012       1.35017768  T        0
O       15.74490423       8.39682239       5.76841200  T        0
O       13.06821316       1.13433417       1.45893463  T        0
O        3.47468079       8.45838789       5.77872832  T        0
O        6.29876777      13.08154601       1.98179041  T        0
O       15.79538417       5.71295634       5.92749019  T        0
O       12.85971473      13.09718291       1.75222395  T        0
O        3.38843509       5.76864974       5.85106998  T        0
O       13.49352520      13.20457542       6.24865388  T        0
O        3.38878395       5.82516858       1.80477362  T        0
O        6.04092968      13.16337209       6.10545182  T        0
O       15.65208918       5.83354399       1.74485439  T        0
O       12.91260895       1.16299203       5.88126530  T        0
O        3.43492765       8.52189041       1.73899558  T        0
O        6.02459493       1.11323363       6.11785574  T        0
O       15.71690367       8.53239047       1.68741165  T        0
O        7.16176280       3.29418554       2.42739409  T        0
O       17.17200434      10.66488552       6.15859781  T        0
O       12.02080293       3.44345322       2.48797657  T        0
O        1.99120746      10.70290979       6.14903048  T        0
O        7.30896284      10.70812995       2.30773208  T        0
O       17.13768736       3.37425737       6.08263891  T        0
O       11.71854538      10.68196028       2.29336771  T        0
O        1.94238646       3.50164623       6.08363088  T        0
O       11.99393556      11.28867193       5.05898729  T        0
O        1.91792903       3.58969419       1.40817041  T        0
O        7.23550548      10.96138972       5.00932814  T        0
O       17.20654229       3.65384283       1.37657904  T        0
O       11.87056636       3.54999375       5.11474293  T        0
O        2.08394640      10.81530022       1.35548716  T        0
O        7.25150083       3.39644683       5.17038153  T        0
O       17.07115475      10.87743038       1.46323985  T        0
O        6.64200161       3.26532051      -0.06027972  T        0
O       16.03170187      10.17433911       3.79348647  T        0
O       12.48921813       3.25995163      -0.04400977  T        0
O        3.04045375      10.19318107       3.78701621  T        0
O        6.48093631      11.38558054      -0.12858045  T        0
O       16.10982759       4.14281040       3.76348493  T        0
O       12.37297279      11.11291763      -0.06607513  T        0
O        3.03331564       4.09692680       3.77385150  T        0
O        4.58382156       3.41959269       1.68801664  T        0
O       14.47839718      10.73587849       5.90938276  T        0
O       14.56501816       3.36627804       1.71910623  T        0
O        4.67579796      10.85556752       5.78621963  T        0
O        4.68405578      10.90618572       1.80246676  T        0
O       14.47212319       3.37189125       5.73150817  T        0
O       14.39021613      10.86635031       1.78714334  T        0
O        4.63212788       3.38492835       5.80072727  T        0
O       11.72031557       8.49426598       4.02253191  T        0
O        7.37085048       8.55221465       3.85858103  T        0
O        1.79232872      13.15094824      -0.02785959  T        0
O       11.61738020       5.86275151       3.65755600  T        0
O        7.63741201       5.93523897       3.63760196  T        0
O        9.48616360      10.14925371       3.66264130  T        0
O       -0.04275705      11.20363578      -0.31306385  T        0
O        9.68529880       4.28395579       3.57942656  T        0
O       13.60494396       6.91314776       5.08481771  T        0
O        5.60555313       6.98908989       5.06649464  T        0
O        5.62714986       7.16934485       2.37838129  T        0
O       13.49360255       7.27565056       2.43322219  T        0
O       14.14716847       7.19389140      -0.07350212  T        0
O        4.70085821       7.09567832      -0.13163274  T        0
Si       6.06486388       2.75785196       1.39718348  T        0
Si      15.84903052      10.00684111       5.42457725  T        0
Si      13.06817766       2.78573572       1.41703447  T        0
Si       3.30672832      10.04772272       5.40064538  T        0
Si       6.15847061      11.51721968       1.47102786  T        0
Si      15.86904140       4.16340762       5.38664754  T        0
Si      12.91088753      11.47089135       1.45831109  T        0
Si       3.27415703       4.18625318       5.39152704  T        0
Si      13.10565895      11.59613163       6.18237846  T        0
Si       3.24725147       4.22186412       2.15491254  T        0
Si       6.13843108      11.51434550       6.10745827  T        0
Si      15.87507710       4.25179323       2.14205736  T        0
Si      12.98006653       2.80487246       6.07940661  T        0
Si       3.30618013      10.09522272       2.17439747  T        0
Si       6.12949470       2.77501411       6.13328204  T        0
Si      15.80055331      10.10263920       2.17366525  T        0
Al      11.25507947      10.18794379       3.99591582  T        0
Si       7.84215182      10.11223350       3.74596634  T        0
Si       1.55031834      11.50614259      -0.05039172  T        0
Si      11.31947633       4.20988925       3.73757298  T        0
Al       7.87379744       4.11672790       3.75290189  T        0
Si      14.86557669       7.05616481       6.11094065  T        0
Si       4.32966762       7.08739047       6.08916457  T        0
Si       4.27925217       7.14432640       1.44952858  T        0
Si      14.78815075       7.19644168       1.44404598  T        0
Si      12.63362680       7.18431875       3.81627041  T        0
Si       6.53006326       7.15828131       3.73848681  T        0
O        6.66389988       3.25881772       7.61161323  T        0
O       12.46320563       3.21598858       7.58413358  T        0
O        6.69580818      11.06730754       7.59255881  T        0
O       12.40953860      11.13972782       7.59708263  T        0
O       14.18251611       7.11771620       7.60554453  T        0
O        4.96183681       7.13512500       7.61047293  T        0
O        3.49571362       8.46582647      -2.07997545  T        0
O        3.19476625       5.85264590      -2.03945871  T        0
O        6.28709128      13.05713748      -2.26022421  T        0
O        2.34542884      10.78622440      -1.29515642  T        0
O        7.54452223      10.83005400      -5.28674684  T        0
O        7.48439078      10.74340195      -2.55808995  T        0
O        2.80822070      10.38963601      -3.85480572  T        0
O        4.85686522      10.75451337      -2.14215110  T        0
O        7.29443278       8.47726520      -3.97322409  T        0
O        7.78053051       5.87718367      -3.89456221  T        0
O        9.61516586       9.74103840      -3.96328097  T        0
O        5.61836304       6.90841896      -2.61856893  T        0
O        5.70359974       6.73390429      -5.32953798  T        0
Si       3.38207884      10.08063202      -2.33762143  T        0
Si       6.26214964      11.48440010      -1.75717109  T        0
Si       7.98627134       9.97004981      -3.93578087  T        0
Si       4.26755095       7.06648747      -1.71296484  T        0
Si       6.58015705       7.00426710      -3.94672856  T        0
H        5.61083456       0.52083913       2.07985367  F        0
H       13.50938118       0.51971906       2.07492992  F        0
H        5.61112307      13.75835362       2.07975607  F        0
H       13.50958039      13.75682243       2.07498241  F        0
H       13.51084140      13.75504172       5.44776650  F        0
H        5.62495998      13.75277707       5.44935724  F        0
H       13.50975252       0.52161770       5.44778410  F        0
H        5.62509051       0.52255101       5.44942550  F        0
H       17.28974254      11.12548174       7.01862795  F        0
H        1.83343022      11.12554006       7.01950242  F        0
H       17.28979000       3.14560285       7.02339196  F        0
H        1.81954193       3.15353441       6.98813474  F        0
H        1.83183800       3.14857954       0.53722786  F        0
H       17.29134854       3.14797220       0.53999843  F        0
H       17.29120144      11.12876736       0.54010345  F        0
H        6.35952436       2.97904956      -0.93427223  F        0
H       12.76076393       2.97683097      -0.93375646  F        0
H       12.76174962      11.29928001      -0.93393629  F        0
H        2.56257806      13.76129914       0.00087584  F        0
H       -0.96427299      11.34215683       0.00103770  F        0
H       14.60982961       7.13673871      -0.92783774  F        0
H        6.35949513       2.97597070       8.47938261  F        0
H       12.76321398       2.97604733       8.47995589  F        0
H        6.35946036      11.30224636       8.48133548  F        0
H       12.76333233      11.30075111       8.47967776  F        0
H       14.61405599       7.13800201       8.47661577  F        0
H        4.50898861       7.14016697       8.47499567  F        0
H        3.36064390       4.89097090      -2.09366187  F        0
H        5.62495998      13.75277707      -2.09714276  F        0
H        6.67686405      11.12256578      -5.64493030  F        0
H        3.19736723      10.11759060      -4.70766930  F        0
H        7.80677964       4.90364681      -3.78479629  F        0
H       10.52611047      10.07370688      -3.78446723  F        0
H        4.87243006       7.14046961      -5.64294599  F        0
Fe       9.52750593       6.32670134       2.81893331  T        0
Fe      10.30280074       9.30836208       1.71429587  T        1
O        9.71527752       7.61730800       1.50745928  T        2
