144
Lattice="20.102 0.0 0.0 0.0 19.731 0.0 0.0 0.0 13.253" Properties=species:S:1:pos:R:3:move_mask:L:1:tags:I:1 i=77 E=-3472.0240129048 regions="_JSON [\"Active\"]" n_terminators=32 energy=-981.6772054195371 pbc="F F F"
O       10.20470985       8.71477705       9.73311644  T        0
O       10.04149365      11.52293028       3.77364712  T        0
O        2.19575815      11.26718231       3.87666212  T        0
O        7.66413090       8.68038995      10.48926123  T        0
O        8.64275074       2.81079245       8.45442198  T        0
O        1.82159382      12.81236313       1.70522276  T        0
O        8.37914962       7.37691507       8.28139949  T        0
O        2.30266306      10.15937059       1.52571046  T        0
O        8.35720799      10.06741586       8.35685440  T        0
O        3.71877211      11.27328631       6.06612543  T        0
O        6.49973425       8.61960048      12.80552925  T        0
O        3.81226442       9.17705080       4.41628659  T        0
O        6.65744090      10.98156123      11.58620455  T        0
O        3.73529562       0.72987984       4.34196652  T        0
O        5.18773494       0.49681288      10.70461482  T        0
O        4.85018589      11.52747216       3.67445624  T        0
O        5.01614244       9.09406673      10.58801042  T        0
O        6.32996916       2.38288091       1.31190370  T        0
O        4.73435405      12.53614909       8.28355098  T        0
O        5.82660529       7.27571978       1.23098330  T        0
O        6.13829358      10.73198986       7.06023632  T        0
O        4.12297587       8.94954978      -0.00089016  T        0
O        3.88819551       9.97600485       8.35016667  T        0
O        5.76346757       9.81379535       1.92818560  T        0
O        2.43689913       2.54002979       1.08920613  T        0
O        8.04365543      12.60734538       7.59499845  T        0
O        2.01898169       7.57537054       0.86793089  T        0
O        8.46838023      10.70264378       5.80503743  T        0
O        2.68578959       1.53974094      10.20977841  T        0
O        7.49141219      11.16118407       3.39387284  T        0
O        2.49051496       8.31507524       9.96497650  T        0
O        9.07766259       9.02748998       3.82998146  T        0
O        8.33650396       0.80498480       3.80809222  T        0
O        4.67756331       2.32760941       8.75222697  T        0
O        6.24768657      12.48449565       1.55190420  T        0
O        4.47966719       7.38266229       8.60364715  T        0
O        0.03005920       6.99875057       2.96280271  T        0
O        0.10669346       2.72720271       2.53864846  T        0
O       10.44095219       2.54878190       3.64262620  T        0
O       10.21351344       6.57278686       3.64308434  T        0
O        2.46925358       6.95592048       3.77017455  T        0
O        2.44510430       3.00684294       3.74330736  T        0
O        1.65523799       4.86074733       2.01248913  T        0
O        3.81923004       7.06678539       6.03795337  T        0
O        3.74663110       2.88560283       5.97709041  T        0
O        5.13558747       6.92238964       3.76128312  T        0
O        5.14313552       2.84652059       3.69341885  T        0
O        4.21216583       4.93782019       7.49559918  T        0
O        6.30029676       6.49660487       6.88227934  T        0
O        6.52181048       3.25137691       6.77120713  T        0
O        8.51535109       4.99894306       7.07328103  T        0
O        8.51635616       7.23440099       5.65145848  T        0
O        8.89593376       2.66347192       5.78365608  T        0
O        7.69617750       6.84960058       3.11834979  T        0
O        7.79578536       3.24544668       3.39807142  T        0
O        6.07587742       4.88341091       2.29744449  T        0
Si       1.54143385      11.32840224       2.36550673  T        0
Si       8.65273390       8.70094527       9.19449862  T        0
Si       3.64158127      10.80418361       4.50013600  T        0
Si       6.44924234       9.36103708      11.34361864  T        0
Si       4.60177721      11.12918829       7.43671046  T        0
Si       5.60772528       8.79900858       0.67398040  T        0
Si       7.74438751      11.03909401       7.21084939  T        0
Si       2.52590085       9.02531106       0.37772813  T        0
Si       8.76626309      10.58726678       4.20835259  T        0
Si       4.12098062       1.05008379       9.55654573  T        0
Si       6.07275551      11.25499621       2.62122460  T        0
Si       3.97453211       8.71798504       9.39411026  T        0
Al       1.64151916       6.57053891       2.20125535  T        0
Si       1.62809410       3.28742244       2.32425449  T        0
Si       3.82911669       7.55764219       4.47238242  T        0
Si       3.78355441       2.34345337       4.41023393  T        0
Si       4.73409841       6.48831919       7.27784797  T        0
Al       4.91429387       3.26416870       7.33481305  T        0
Si       7.93107145       6.51217416       6.98093098  T        0
Si       8.10185647       3.40842944       7.01237461  T        0
Si       8.87625185       7.42758114       4.07422286  T        0
Si       8.89651792       2.31320975       4.18374142  T        0
Si       6.20136913       6.47498498       2.60195600  T        0
Si       6.33248231       3.30937334       2.67075797  T        0
O        6.77278397       9.17277033      -0.41167829  T        0
O        1.66192730       9.63661944      -0.88673983  T        0
O        2.04585847      -1.36422914       4.03880979  T        0
O        3.61747571      -1.27208844       6.10347110  T        0
O        4.63404924      -1.66853581       3.56131917  T        0
O        4.64609966      -2.75890003       8.12762952  T        0
O        6.00831679      -0.74988715       6.86410247  T        0
O        3.88586628      -0.22967686       8.54043111  T        0
Si       3.54419220      -0.88325753       4.52150662  T        0
Si       4.55040879      -1.25602085       7.45374597  T        0
O       -0.07348313      11.05940003       2.47991563  T        0
O       -4.58182672       7.27686269       5.27266194  T        0
O       -4.36687739       2.60780785       5.23911306  T        0
O       -2.23805884      11.18989212       0.79654690  T        0
O       -2.53505490      11.13079169       3.45576277  T        0
O       -1.69000704       0.74969399       2.98658517  T        0
O       -1.63429880       8.94333674       2.10103293  T        0
O       -4.76840557       2.78122694       2.49027504  T        0
O       -4.76326743       7.12460985       2.51806389  T        0
O       -1.89207527       2.27384358       0.79084307  T        0
O       -1.67845587       6.44902963       1.05157745  T        0
O       -2.38984453       3.20290880       3.35876416  T        0
O       -2.46337230       6.87851111       3.62504145  T        0
O       -4.27382142       4.93798845       4.09202162  T        0
Si      -1.61546972      10.58457895       2.19948357  T        0
Si      -1.45581573       2.26328259       2.38216155  T        0
Si      -1.48024651       7.35700591       2.40932018  T        0
Si      -3.96480798       3.34271389       3.81664034  T        0
Si      -4.05159126       6.54273326       3.89404698  T        0
H       10.95532307       8.85008497       9.12727255  F        0
H       10.94686465      11.30097846       4.04088346  F        0
H        8.32487049       1.96348467       8.80281458  F        0
H        2.20758188      13.00694286       0.83020008  F        0
H        6.01931354       8.91222751      13.59787507  F        0
H        6.45001595      11.67065412      10.93294989  F        0
H        5.99284639       0.93401564      11.03719697  F        0
H        5.69664664       1.68513527       1.05659762  F        0
H        4.03182275      12.92715973       8.82439874  F        0
H        2.35337064       1.61243811       0.82192755  F        0
H        8.21123678      12.90527891       8.50458507  F        0
H        1.92726146       1.06764952      10.59110356  F        0
H        1.92726146       8.79770260      10.59110356  F        0
H        8.57917594      -0.10444883       4.04180490  F        0
H        5.53537813      12.95496052       1.09262639  F        0
H       11.09748793       3.17088023       4.02620164  F        0
H       11.09748793       6.69447189       4.02620164  F        0
H        6.58577874       9.14969547      -1.35751146  F        0
H        1.54448592       9.14594745      -1.70877228  F        0
H        1.81269882      -1.43617684       3.09859994  F        0
H        5.52981240      -1.34062802       3.37578188  F        0
H        4.03182274      -3.06210338       8.82439872  F        0
H        6.92226376      -0.94135423       7.12331841  F        0
H       -4.35421061       8.18021682       5.56988654  F        0
H       -4.35421061       1.68513522       5.56988652  F        0
H       -2.15644976      10.75416907      -0.07046469  F        0
H       -3.49783775      11.30937631       3.49139018  F        0
H       -1.47168132      -0.10444883       2.58467926  F        0
H       -5.70518556       2.56164176       2.37811508  F        0
H       -5.70518557       7.30371036       2.37811510  F        0
H       -2.04192549       3.05661076       0.22907734  F        0
H       -2.04192548       6.80874135       0.22907734  F        0
Fe       0.66465122       6.38341040       4.75782076  T        0
Fe       2.51297475       4.46734626       6.37436555  T        1
O        0.91094513       5.29529023       6.18038972  T        2
