139
Lattice="20.102 0.0 0.0 0.0 19.731 0.0 0.0 0.0 13.253" Properties=species:S:1:pos:R:3:move_mask:L:1:tags:I:1 i=77 E=-3472.0240129048 regions="_JSON [\"Active\"]" n_terminators=30 energy=-947.8584814793157 pbc="F F F"
O       10.21643697       8.64235651       9.72823655  T        0
O       10.03986002      11.55530135       3.81401435  T        0
O        2.26221110      11.38671314       3.91605865  T        0
O        7.66262232       8.63602375      10.47315381  T        0
O        8.52593767       2.81464616       8.39430699  T        0
O        1.88067033      12.83696851       1.73131589  T        0
O        8.39659952       7.28668327       8.28610735  T        0
O        2.12225579      10.12927014       1.59788394  T        0
O        8.40597683       9.98819223       8.32026514  T        0
O        3.71354499      11.21651080       6.15129147  T        0
O        6.58392392       8.66826192      12.84364118  T        0
O        3.75663598       9.23663132       4.33738919  T        0
O        6.78009928      10.98562060      11.53774049  T        0
O        4.11150774       0.57658820       4.05488919  T        0
O        4.93200771      11.58091382       3.83017517  T        0
O        5.01887331       9.13779948      10.68263748  T        0
O        6.02104270       2.60238690       1.14805040  T        0
O        4.75326668      12.48713721       8.35223514  T        0
O        5.96191945       7.42732042       1.22758767  T        0
O        6.13657727      10.67670989       7.14617409  T        0
O        3.97362572       8.85322716       0.13530441  T        0
O        3.88080786       9.92817399       8.43558187  T        0
O        5.61120131       9.97377377       1.90483376  T        0
O        1.71986242       2.33120041       0.99755704  T        0
O        8.06199446      12.56150233       7.60914594  T        0
O        1.84113711       7.53263069       1.00507508  T        0
O        8.40556451      10.70471865       5.79083483  T        0
O        7.52039332      11.14277166       3.33855148  T        0
O        2.52382671       8.24792775      10.06582527  T        0
O        9.10736773       9.04697947       3.84199586  T        0
O        8.36899937       0.76782587       3.67231181  T        0
O        4.02087097       2.65763039       8.61044832  T        0
O        6.22823173      12.63389792       1.68799801  T        0
O        4.53272807       7.33258407       8.74280144  T        0
O       -0.25262132       6.68972989       2.87904031  T        0
O       -0.08534366       2.89187576       2.90517111  T        0
O       10.39582050       2.51050498       3.83580408  T        0
O       10.26404784       6.63538454       3.53124663  T        0
O        2.42346894       6.89459357       3.81138186  T        0
O        2.52878828       2.66494923       3.58110253  T        0
O        1.51097422       4.76497489       2.24602724  T        0
O        3.66776118       7.12115275       5.97348636  T        0
O        3.85322593       2.53037363       5.91780734  T        0
O        5.08405379       7.01957371       3.69227391  T        0
O        5.20543227       2.93880460       3.68630744  T        0
O        4.04632950       4.84823044       7.13660278  T        0
O        6.36232191       6.62814702       6.65105882  T        0
O        6.20185693       3.21168820       7.06272807  T        0
O        8.33036198       4.92867292       6.98921933  T        0
O        8.77542783       7.18808100       5.68544228  T        0
O        8.41201979       2.59193065       5.70071649  T        0
O        7.68695678       6.88029394       3.22049067  T        0
O        7.81715431       3.20858153       3.16528910  T        0
O        6.08655208       4.99142898       2.25500137  T        0
Si       1.53399809      11.39246813       2.44385798  T        0
Si       8.66208097       8.62573704       9.18346654  T        0
Si       3.66562847      10.85594730       4.55955873  T        0
Si       6.49253908       9.36534142      11.35677178  T        0
Si       4.59893207      11.06842079       7.52314844  T        0
Si       5.50968784       8.90968322       0.68959799  T        0
Si       7.74247621      10.99426800       7.23606342  T        0
Si       2.36940438       8.96907763       0.47574720  T        0
Si       8.76681947      10.59937173       4.21196652  T        0
Si       6.06193504      11.33570875       2.67390090  T        0
Si       4.00849996       8.65611369       9.48204853  T        0
Al       1.49029470       6.54389924       2.36055532  T        0
Si       1.51872210       3.15267473       2.40190543  T        0
Si       3.76093238       7.62752758       4.40645464  T        0
Si       3.92315798       2.19092741       4.32131614  T        0
Al       4.76999955       6.51656968       7.25617655  T        0
Si       4.57606837       3.28690106       7.19701789  T        0
Si       7.93622229       6.51859656       6.91790338  T        0
Si       7.84169378       3.38243380       7.01387573  T        0
Si       8.93986915       7.44429438       4.08738590  T        0
Si       8.78891937       2.29464549       4.13017906  T        0
Si       6.21692523       6.58067000       2.60215857  T        0
Si       6.30805203       3.40433508       2.56149310  T        0
O        6.53908674       9.47691106      -0.45105380  T        0
O        1.54821943       9.54724959      -0.82989977  T        0
O       -0.07813128      11.23618688       2.71816793  T        0
O       -4.01287747       7.27439792       5.44109093  T        0
O       -3.96478238       2.57257145       5.45671132  T        0
O       -1.44567779      10.84056149       0.58166696  T        0
O       -2.79739587      11.48395942       2.83060763  T        0
O       -1.82615911       0.75709139       2.86238271  T        0
O       -1.60877179       9.05992471       2.65702978  T        0
O       -5.35547730       2.53512537       3.28187812  T        0
O       -5.54692244       7.18912534       3.32604003  T        0
O       -1.65585006       2.55714949       0.77812203  T        0
O       -1.64501069       7.24809789       0.71145783  T        0
O       -2.65767718       3.22009965       3.18130574  T        0
O       -2.85955294       6.72575966       3.04980112  T        0
O       -4.34630221       4.91691982       4.22243186  T        0
Si      -1.51710942      10.64778342       2.21224585  T        0
Si      -1.56505008       2.29797771       2.39131006  T        0
Si      -1.59979450       7.47024269       2.33133789  T        0
Si      -4.10425872       3.31693161       4.00024645  T        0
Si      -4.19320177       6.52802496       3.98668277  T        0
O       -2.08903153       7.02845814      -1.93586114  T        0
O       -2.12219416       2.80199454      -1.88296640  T        0
O       -4.11314409       2.89093994       0.04662537  T        0
O       -4.09350974       6.99049603      -0.03207537  T        0
O       -2.40097636       4.91204511      -0.39404457  T        0
Si      -2.56029018       3.28923257      -0.38235220  T        0
Si      -2.54892022       6.53810210      -0.43844551  T        0
H       10.95532307       8.85008497       9.12727255  F        0
H       10.94686465      11.30097846       4.04088346  F        0
H        8.32487049       1.96348467       8.80281458  F        0
H        2.20758188      13.00694286       0.83020008  F        0
H        6.01931354       8.91222751      13.59787507  F        0
H        6.45001595      11.67065412      10.93294989  F        0
H        3.45924363      -0.04624542       4.41174334  F        0
H        5.69664664       1.68513527       1.05659762  F        0
H        4.03182275      12.92715973       8.82439874  F        0
H        2.35337064       1.61243811       0.82192755  F        0
H        8.21123678      12.90527891       8.50458507  F        0
H        1.92726146       8.79770260      10.59110356  F        0
H        8.57917594      -0.10444883       4.04180490  F        0
H        4.22937586       1.85859719       9.12987557  F        0
H        5.53537813      12.95496052       1.09262639  F        0
H       11.09748793       3.17088023       4.02620164  F        0
H       11.09748793       6.69447189       4.02620164  F        0
H        6.58577874       9.14969547      -1.35751146  F        0
H        1.54448592       9.14594745      -1.70877228  F        0
H       -4.35421061       8.18021682       5.56988654  F        0
H       -4.35421061       1.68513522       5.56988652  F        0
H       -2.15644976      10.75416907      -0.07046469  F        0
H       -3.49783775      11.30937631       3.49139018  F        0
H       -1.47168132      -0.10444883       2.58467926  F        0
H       -5.70518556       2.56164176       2.37811508  F        0
H       -5.70518557       7.30371036       2.37811510  F        0
H       -1.72598676       7.90186745      -2.17636213  F        0
H       -1.72598676       1.96348466      -2.17636212  F        0
H       -4.86313421       3.38398260      -0.31753884  F        0
H       -4.86313421       6.48136952      -0.31753884  F        0
Fe      -0.18606830       4.90222878       3.95962682  T        0
Fe       2.38480848       5.54844492       5.87057545  T        1
O        0.96810984       4.16578203       5.50924344  T        2
O        0.26085312       5.45401056       5.84862603  T        3
