136
Lattice="19.123 0.0 0.0 0.0 14.277 0.0 0.0 0.0 7.5465" Properties=species:S:1:pos:R:3:move_mask:L:1:tags:I:1 i=128 E=-2603.9155142701 regions="_JSON [\"Active\"]" n_terminators=32 energy=-911.5658037188529 pbc="F F F"
O        6.10719256       1.16099889       1.53322093  T        0
O       15.71128873       8.43417294       5.87894879  T        0
O       12.95082979       1.11753221       1.54004175  T        0
O        3.31497132       8.40399607       5.34683877  T        0
O       15.76030337       5.73807676       5.86261464  T        0
O       12.84879519      13.03427707       2.01388036  T        0
O        3.48266300       5.79364731       5.88745464  T        0
O       13.10193320      13.13485876       6.08120455  T        0
O        3.41136852       5.83189857       1.64804863  T        0
O       15.42457522       5.81412894       1.89082074  T        0
O       12.89980173       1.16715855       5.85692259  T        0
O        3.23603917       8.51504257       1.64254511  T        0
O        6.17215313       1.16314736       5.94840577  T        0
O       15.65863810       8.49566024       1.72163111  T        0
O        7.19487008       3.49196070       2.46146328  T        0
O       17.16217795      10.71749376       6.14020334  T        0
O       11.88753757       3.46758424       2.45935211  T        0
O        6.99642732      11.04902744       2.82498941  T        0
O       17.13287581       3.41148059       6.09366420  T        0
O       11.88412292      10.53025137       2.34957468  T        0
O        1.96210771       3.55416080       6.10306385  T        0
O       11.92342605      10.91224453       5.01603611  T        0
O        1.95907478       3.54930933       1.42404587  T        0
O        7.48265796      10.63087146       5.36512834  T        0
O       17.08639991       3.78236559       1.26459928  T        0
O       11.87050829       3.55966773       5.09276730  T        0
O        7.20794860       3.54615827       5.09563978  T        0
O       17.06473113      10.76671729       1.35659209  T        0
O        6.66409232       3.24019280      -0.04712138  T        0
O       16.18145990      10.07588123       3.81224124  T        0
O       12.46130129       3.24301504      -0.04583879  T        0
O       16.10212424       4.07687059       3.76390734  T        0
O       12.68686165      11.10636905      -0.00569780  T        0
O        3.03645020       4.20747803       3.76083522  T        0
O        4.62002203       3.41749301       1.75877855  T        0
O       14.48299424      10.82523400       5.73311974  T        0
O       14.48227833       3.30474241       1.77930809  T        0
O       14.45923446       3.37896675       5.75732681  T        0
O       14.49961735      10.90735304       1.94549420  T        0
O        4.61581594       3.35803752       5.74335693  T        0
O       11.29207286       8.49740389       3.85248440  T        0
O        7.82149552       8.50900235       3.71195227  T        0
O       11.22906477       5.80693442       3.67330374  T        0
O       17.31235162      13.12684103       0.00956199  T        0
O        7.81970089       5.82928595       3.72493332  T        0
O        9.55412585      10.51235745       3.72282275  T        0
O        9.53071856       3.81247660       3.74962546  T        0
O       13.57597861       7.02949763       5.06865328  T        0
O        5.72283990       7.15936554       5.37219175  T        0
O        5.52225265       7.26649511       2.48382862  T        0
O       13.26394548       7.43521147       2.20671911  T        0
O       14.36052392       7.14278454      -0.18293828  T        0
O        4.94430594       7.26035981      -0.06580591  T        0
Si       6.10252183       2.81521633       1.44017252  T        0
Si      15.86789220       9.99877317       5.42412504  T        0
Si      12.96956583       2.76826665       1.44763802  T        0
Si      15.84889616       4.16837370       5.38863338  T        0
Si      13.03497877      11.46948400       1.56006163  T        0
Si       3.27949307       4.24855535       5.38436839  T        0
Si      13.03664892      11.48658346       6.10180207  T        0
Si       3.26602646       4.27387101       2.13328705  T        0
Si      15.77888364       4.22541920       2.16400695  T        0
Si      12.95913282       2.80800432       6.07298207  T        0
Si       6.11582431       2.81481963       6.08325749  T        0
Si      15.87814552      10.04498902       2.21369241  T        0
Si      11.13337058      10.13937883       3.83182794  T        0
Si       7.92709586      10.15511244       3.85147107  T        0
Si      11.13940613       4.13764484       3.75139089  T        0
Si      17.58955324      11.49177513      -0.03994758  T        0
Si       7.91836761       4.15789952       3.76050943  T        0
Si      14.81125676       7.06595836       6.10693560  T        0
Si       4.25835376       7.24284534       6.07294804  T        0
Si       4.28029697       7.23374417       1.45755805  T        0
Si      14.70834598       7.19469466       1.41638351  T        0
Al      12.45349919       7.11451216       3.79764345  T        0
Al       6.56174827       7.19191839       3.85561077  T        0
O       19.17503207      11.20604692      -0.32217930  T        0
O        6.63166263       3.25634635       7.58612425  T        0
O       12.43750726       3.19457052       7.58533088  T        0
O       12.48842457      11.02697442       7.58133192  T        0
O       14.15790739       7.05671841       7.62159315  T        0
O        4.32951797       7.66713875       7.67452914  T        0
O       15.61849550       8.47858288      -2.10947603  T        0
O       15.90305184       5.85923010      -2.03771698  T        0
O       12.98584346      13.12730611      -1.57373553  T        0
O       16.84522989      10.75051997      -1.29945133  T        0
O       11.58884063      10.87203673      -5.23305459  T        0
O       11.79449744      10.81946740      -2.51851700  T        0
O       16.33850645      10.39843186      -3.87059573  T        0
O       14.36478037      10.84360291      -2.10565345  T        0
O       11.70922656       8.50217582      -3.90388915  T        0
O       11.33532384       5.87528424      -3.92653985  T        0
O        9.55425800      10.18047106      -3.59797430  T        0
O       13.49715968       6.93438398      -2.67588255  T        0
O       13.33257561       6.91254156      -5.39039410  T        0
Si      15.79452758      10.09139091      -2.34559664  T        0
Si      12.96269438      11.48016599      -1.60674526  T        0
Si      11.16147227      10.05962689      -3.84860549  T        0
Si      14.83568651       7.08437030      -1.75808507  T        0
Si      12.48914984       7.05264947      -3.96868488  T        0
H        5.61083456       0.52083913       2.07985367  F        0
H       13.50938118       0.51971906       2.07492992  F        0
H        3.36611374       9.37433505       5.45534891  F        0
H       13.50958039      13.75682243       2.07498241  F        0
H       13.51084140      13.75504172       5.44776650  F        0
H       13.50975252       0.52161770       5.44778410  F        0
H        3.36626427       9.38386245       2.08012257  F        0
H        5.62509051       0.52255101       5.44942550  F        0
H       17.28974254      11.12548174       7.01862795  F        0
H        6.67686405      11.12256578       1.90156970  F        0
H       17.28979000       3.14560285       7.02339196  F        0
H        1.81954193       3.15353441       6.98813474  F        0
H        1.83183800       3.14857954       0.53722786  F        0
H        6.67998430      11.11604137       5.63469228  F        0
H       17.29134854       3.14797220       0.53999843  F        0
H        6.35952436       2.97904956      -0.93427223  F        0
H       12.76076393       2.97683097      -0.93375646  F        0
H       16.56020813      13.76127004      -0.00066979  F        0
H        4.51175007       7.13509558      -0.92932085  F        0
H       20.08739461      11.34211663       0.00099186  F        0
H        6.35949513       2.97597070       8.47938261  F        0
H       12.76321398       2.97604733       8.47995589  F        0
H       12.76333233      11.30075111       8.47967776  F        0
H       14.61405599       7.13800201       8.47661577  F        0
H        4.50898861       7.14016697       8.47499567  F        0
H       15.75636517       4.89339805      -2.09021006  F        0
H       13.51084140      13.75504172      -2.09873350  F        0
H       12.44599272      11.12072140      -5.64644730  F        0
H       15.92569105      10.11584057      -4.70878458  F        0
H       11.31540413       4.90177526      -3.78397907  F        0
H        8.59739021      10.07362933      -3.78432063  F        0
H       14.25080708       7.13791561      -5.64139813  F        0
Fe      11.67899665       8.58007229       1.33432824  T        0
Fe       9.43705136       7.07566393       3.21941829  T        1
O        9.72117624       7.99827736       1.43542344  T        2
O       10.59383595       7.24383164       0.52992641  T        3
