142
Lattice="19.123 0.0 0.0 0.0 14.277 0.0 0.0 0.0 7.5465" Properties=species:S:1:pos:R:3:move_mask:L:1:tags:I:1 i=128 E=-2603.9155142701 regions="_JSON [\"Active\"]" n_terminators=34 energy=-949.4946135441741 pbc="F F F"
O       15.57118486       8.79505979       6.21071279  T        0
O       12.86136020       1.35859213       1.67644731  T        0
O       15.59743493       6.11504581       5.74653804  T        0
O       15.62706219       5.86998910       1.78718675  T        0
O       12.88894594       1.22926635       5.73025390  T        0
O       15.91013139       8.45161196       1.82377068  T        0
O       11.65088931       3.63100275       2.41283559  T        0
O       17.01083175       3.46731568       6.19591883  T        0
O       16.87765751       3.55726223       1.25080398  T        0
O       11.59519309       3.47231728       5.10293560  T        0
O       12.50074156       3.41193849      -0.09629574  T        0
O       16.18333218       4.06883103       3.74247847  T        0
O       14.27797719       3.57424912       1.92462252  T        0
O       14.18663763       3.55088617       5.84918139  T        0
O       11.30148488       8.40364063       3.66553759  T        0
O       16.99079141       1.33261500      -0.22213041  T        0
O       11.81072779       5.83729499       3.87037936  T        0
O        9.49182436       4.60996342       3.77788071  T        0
O       13.41914424       7.56693553       5.13264768  T        0
O       15.42666586      -0.04122858       1.49717230  T        0
O       15.25214602       0.06750296       6.27748048  T        0
O       13.49777598       7.37984548       2.47133826  T        0
O       14.21996894       7.31611912      -0.04803563  T        0
O       14.31897059      -0.07319460       3.84047110  T        0
Si      12.81133360       2.95611915       1.46920573  T        0
Al      15.61324048       4.42379649       5.45747510  T        0
Si      15.71276093       4.28404314       2.14959043  T        0
Si      12.75558512       2.84792736       6.08422608  T        0
Si      17.53850865       2.88604751      -0.10427329  T        0
Si      11.11473270       4.35542448       3.79115518  T        0
Si      14.68806526       7.39514150       6.16206942  T        0
Al      13.69673495      -0.07804171       2.10464048  T        0
Si      13.84418759      -0.04510989       5.43631844  T        0
Si      14.80124896       7.26523865       1.49808896  T        0
Si      12.51701156       7.30158489       3.79366652  T        0
Si      16.06211225      -0.00110238      -0.03571136  T        0
O       21.16409003       3.66904347       9.02716015  T        0
O       21.34721740       1.24216860       7.83114306  T        0
O       19.18335020       2.80779082       7.55792144  T        0
O       23.28894895      -0.50664554       8.76092951  T        0
Si      20.83997597       2.80288621       7.66195040  T        0
Si      22.28833743      -0.06627092       7.52192684  T        0
O       22.42135796       5.88314000       5.79931262  T        0
O       22.48154797       5.95116097       2.07772681  T        0
O       21.51965452       3.45756194       6.30678598  T        0
O       21.53121370       3.56404442       1.32657036  T        0
O       22.46627689       3.95406876       3.83710106  T        0
O       24.22237305       3.97420347       1.72556946  T        0
O       24.20787533       3.95906140       5.95658496  T        0
O       21.30999677       1.27434526       0.03102423  T        0
O       19.17534370       2.90074636       0.05861638  T        0
O       23.63209634       0.12119818       0.91009047  T        0
O       23.11508013       0.43765123       6.16794733  T        0
Si      22.66488339       4.28910449       5.44852701  T        0
Si      22.68335043       4.32353536       2.23719405  T        0
Si      20.83525814       2.85446857       0.00111819  T        0
Si      22.30067602      -0.03052602      -0.07991725  T        0
O       21.19689798       3.63177170      -1.40862210  T        0
O       22.90149633      -0.08633411      -1.61423253  T        0
O       21.24831387      -3.44541386       9.10512352  T        0
O       21.40365780      -1.42570937       7.25857522  T        0
O       19.20782912      -2.96572142       7.53945881  T        0
Si      20.85168525      -2.95592147       7.58115947  T        0
O       21.45307705      -4.04535186       6.48937606  T        0
O       21.20424985      -3.86169681       1.31657296  T        0
O       21.43865677      -1.40519616       0.18997981  T        0
O       19.14958254      -2.85762722      -0.00537628  T        0
Si      20.79985411      -2.92389750       0.00887012  T        0
O       21.20978393      -3.60110431      -1.44027561  T        0
O       17.06353983       3.82413637       8.89624774  T        0
O       12.23538432       2.98770198       7.65480019  T        0
O       16.94817841       1.31624525       7.85165995  T        0
O       15.16108234      -0.47108167       8.96180315  T        0
O       14.05524639       7.20069269       7.68106182  T        0
Si      17.54205685       2.84103330       7.65937072  T        0
Si      16.11819389      -0.09144172       7.66884272  T        0
O       17.10655950       3.74188313      -1.45678635  T        0
O       14.67670849       0.04521478      -0.93839951  T        0
O       17.08263901      -3.72253243       8.97393665  T        0
O       12.43215832      -3.32594604       7.62684525  T        0
O       17.10255403      -1.37661586       7.54842671  T        0
Si      17.57096234      -2.95983810       7.59041078  T        0
O       15.85233413      -6.02508479       5.48868706  T        0
O       12.92668484      -1.56244926       1.73029695  T        0
O       13.07674752      -1.42788028       5.81140398  T        0
O       15.90710384      -5.98358664       1.82120538  T        0
O       16.99737920      -3.70167859       6.23592619  T        0
O       11.66233266      -3.85274071       2.37033225  T        0
O       11.88068787      -3.69670642       5.05085601  T        0
O       16.85045700      -3.54822545       1.24026545  T        0
O       16.07671637      -4.05103714       3.73625745  T        0
O       12.44129412      -3.46565425      -0.14734638  T        0
O       14.40025313      -3.74931799       5.83016267  T        0
O       14.24359769      -3.88203942       1.80175379  T        0
O       11.31587111      -6.08097745       3.87600266  T        0
O       16.96283034      -1.33900583      -0.26848740  T        0
O        9.51972251      -4.07264549       4.06828186  T        0
Si      15.81723143      -4.38477800       5.32889451  T        0
Si      12.81864108      -3.14139424       1.43809946  T        0
Si      12.94899702      -3.04309478       6.08463349  T        0
Si      15.75252437      -4.37201478       2.14835949  T        0
Si      11.09902598      -4.43479984       3.80373048  T        0
Si      17.51123841      -2.89410754      -0.11943170  T        0
O       17.11038136      -3.74603657      -1.47798181  T        0
H       15.75671561       9.37610020       5.45468838  F        0
H       15.75699573       9.38061947       2.07980242  F        0
H       12.76076393       2.97683097      -0.93375646  F        0
H       11.31595404       9.37380971       3.76235534  F        0
H        8.59637561       4.20354031       3.76204115  F        0
H       14.60982961       7.13673871      -0.92783774  F        0
H       22.00636260       3.98381786       9.40800429  F        0
H       23.80717611       0.00053719       9.40943871  F        0
H       23.07136830       6.61169953       5.84807952  F        0
H       23.06898247       6.62073046       1.68518482  F        0
H       24.75935035       3.15857028       1.68481677  F        0
H       24.75385446       3.15950316       5.84781029  F        0
H       23.80717611       0.00053719       1.86293871  F        0
H       23.83786620      -0.00082127       5.68998115  F        0
H       21.98145514       3.97853683      -1.88343379  F        0
H       23.83786620      -0.00082127      -1.85651885  F        0
H       22.00483182      -3.97984234       9.41435165  F        0
H       22.00608000      -3.98797095       5.68686433  F        0
H       22.00483182      -3.97984234       1.86785165  F        0
H       22.00608000      -3.98797095      -1.85963567  F        0
H       16.24121950       3.98053732       9.41400179  F        0
H       12.76321398       2.97604733       8.47995589  F        0
H       14.43595606      -0.00016978       9.40393244  F        0
H       14.61405599       7.13800201       8.47661577  F        0
H       16.23925818       3.97887666      -1.85852020  F        0
H       14.44051635       0.00152190      -1.88177140  F        0
H       16.24088130      -3.98173953       9.41338238  F        0
H       12.76333233      -2.97624889       8.47967776  F        0
H       15.17320598      -6.62175386       5.84596239  F        0
H       15.17712900      -6.61799919       1.68693573  F        0
H       12.76174962      -2.97771999      -0.93393629  F        0
H       12.12595522      -6.62290057       3.76264176  F        0
H        8.59739021      -4.20337067       3.76217937  F        0
H       16.24044124      -3.98714965      -1.86101282  F        0
Fe      16.29983185       0.08027950       3.34352262  T        0
Fe      17.53315869       2.64543914       4.38828780  T        1
O       17.84633380       0.60477520       4.50408764  T        2
O       18.04502028       1.18774324       3.12145075  T        3
