144
Lattice="20.102 0.0 0.0 0.0 19.731 0.0 0.0 0.0 13.253" Properties=species:S:1:pos:R:3:move_mask:L:1:tags:I:1 i=77 E=-3472.0240129048 regions="_JSON [\"Active\"]" n_terminators=32 energy=-981.7227873303973 pbc="F F F"
O       10.02808570       1.36899688       9.23349849  T        0
O       10.13975436       8.85623184       9.17464738  T        0
O        7.36093574       1.20166504      10.50971959  T        0
O        7.98719449       8.66454411      10.72246861  T        0
O       17.96137021       1.42867831       9.24254588  T        0
O        8.15114420       2.87989596       8.19536616  T        0
O        7.99897662       7.56946818       8.25664287  T        0
O        7.67852213       0.09724631       7.85421768  T        0
O        7.88631273      10.26204368       8.62933972  T        0
O       11.72442881      10.26736681       5.28493199  T        0
O        6.32791648       0.32892331      12.91992038  T        0
O       16.54497563       0.87324851       7.16398736  T        0
O       13.95535711       0.79141953       2.44155533  T        0
O        4.69535606       1.01196992      10.90180540  T        0
O       15.25660660       1.53479630       9.42226043  T        0
O       16.09424269       2.48423768       5.10276578  T        0
O       14.26862475       9.42413679       5.72043429  T        0
O       14.14989751       0.95687419       6.12441526  T        0
O       16.12520488      -0.16553085       4.74094545  T        0
O       12.34450100       7.59841776       5.29625618  T        0
O       12.34903333       2.77138541       5.35676362  T        0
O       12.22106525       9.02928968       7.49814062  T        0
O       11.81727597       1.15693083       7.37536928  T        0
O       12.58366448       8.32544843      10.04265471  T        0
O       12.61546965       1.25440719       9.88339448  T        0
O        8.21251534       9.16941436       3.62592310  T        0
O        8.40629048       0.97581807       4.13574781  T        0
O       12.00105698      10.84022859       9.48884320  T        0
O       13.94969354       2.70615775      11.51518636  T        0
O       10.18051577       2.90726103       3.56424721  T        0
O       10.12561699       7.24175492       3.82085627  T        0
O       12.89818709       3.26213287       2.51140787  T        0
O       12.39549370       7.13368204       2.61197601  T        0
O       11.80036634       5.19171060       4.45012630  T        0
O       14.20707509       2.25513325       0.34996669  T        0
O       15.52769476       2.96781181       2.54817779  T        0
O        5.85247826       7.12440854       6.65583047  T        0
O        5.99565914       3.12153355       6.47782172  T        0
O        7.65178731       5.19936931       7.13179644  T        0
O        8.26296195       7.39155572       5.65437075  T        0
O        8.43782669       3.19527463       5.55448925  T        0
O        7.73778935       6.59474210       3.08510786  T        0
O        7.74437622       3.31683009       2.91271222  T        0
O       17.98551957       3.47792228       3.40989840  T        0
O       15.94548096       4.97896705       4.37309953  T        0
Al       8.21549948       1.23782161       9.00697150  T        0
Si       8.50807845       8.83091144       9.17248659  T        0
Si       6.18957358       0.38073647      11.27853443  T        0
Si      16.54404754       0.73642045       8.78363751  T        0
Si      15.73727625       1.03679007       5.76289057  T        0
Si      12.66470468       9.08305547       5.94464764  T        0
Si      12.56911919       1.23824657       5.93082828  T        0
Si      11.70987391       9.28415875       9.03585280  T        0
Si      11.48316017       0.64843035       8.89299038  T        0
Si      14.09373337       1.37597162      10.56691208  T        0
Al      11.77025890       3.47579912       3.78083897  T        0
Si      11.66010149       6.79632990       4.03932455  T        0
Si      14.11296200       2.34367134       1.98879250  T        0
Si       7.44988042       6.80833842       6.93169309  T        0
Si       7.53310750       3.59703578       6.83370901  T        0
Si       8.55753872       7.61711509       4.05884089  T        0
Si       8.68848288       2.57611862       4.03126258  T        0
Si      16.38976964       3.47730387       3.83618858  T        0
O       13.48830640      -0.61148727      13.65297005  T        0
O        9.98886283      -1.15760790       3.72812712  T        0
O       12.49301675      -1.35958378       2.81200516  T        0
O       11.83566642      -2.56195905       5.06208970  T        0
O       11.92070652       0.13683866       4.94408281  T        0
O       13.56410628      -1.12900114       0.46210476  T        0
O        6.25949291      -1.19311066      10.81611931  T        0
O       16.47567195      -0.83157168       9.25090944  T        0
O       15.17967592      -1.50044266       2.60956159  T        0
O       14.35519964      -2.58127411      12.02215709  T        0
O        5.74518851      -1.49015326       6.79596513  T        0
O       16.13147344      -0.93864361      13.24827747  T        0
O       14.44602820      -0.00594366      11.34661131  T        0
O        8.00767851      -2.54524978       7.79144865  T        0
O        8.06779178      -1.22665401       5.56720281  T        0
O        7.48550880      -1.25011754       2.94093962  T        0
O       17.78522272      -1.70042342       3.28145311  T        0
O       11.39887010      -0.95628689       9.00030456  T        0
O       15.99333635      -2.86994674       4.72688246  T        0
O        9.92641295      -3.07693314       9.58217386  T        0
O        7.39526016      -3.51270115      10.21505744  T        0
O       17.87505766      -3.11068800       9.44739542  T        0
O        8.55265705      -5.02376950       8.29508825  T        0
O        6.51858692      -3.25683997      12.62730464  T        0
O       16.42064248      -2.63792991       7.30807722  T        0
O        4.71888711      -3.39501699      10.69056472  T        0
O       15.15463067      -3.14214460       9.56101786  T        0
O       16.12734751      -5.04648455       6.36388578  T        0
O       14.01398008      -3.32738361       6.41147376  T        0
O       12.11266301      -5.11102324       5.76549211  T        0
O       11.68483457      -3.21163902       7.61926437  T        0
O       12.54145138      -3.08838196      10.13005655  T        0
O       14.09990658      -5.05683981      11.14645707  T        0
Si      11.55877543      -1.24433247       4.13925017  T        0
Si      13.81648300      -0.78953324       2.04345351  T        0
Si      14.62805714      -1.05863220      12.56899927  T        0
Si       7.36863418      -1.25177236       7.03580527  T        0
Si       8.47910129      -0.65239469       4.10558195  T        0
Si      16.25297906      -1.52904398       3.84310525  T        0
Si       8.46010909      -3.53666782       8.98666915  T        0
Si       6.20969001      -2.80531991      11.08259865  T        0
Si      16.47625504      -2.43258996       8.91821104  T        0
Si      15.61670803      -3.49672393       6.17951017  T        0
Si      12.41497476      -3.55361337       6.20984027  T        0
Si      11.39635129      -2.58950415       9.08638909  T        0
Si      14.02692272      -3.47636078      10.69119110  T        0
H        7.07153747       8.87866318      10.98534327  F        0
H       18.28958667       1.43588107      10.15436837  F        0
H        7.75914502      10.43742179       7.68600442  F        0
H       11.77602644      10.74421016       4.43990149  F        0
H        6.01931354       0.95312461      13.59787507  F        0
H        4.52133035       1.34033226      10.00226603  F        0
H       15.03932990       8.88569483       5.99268334  F        0
H       13.54926599       8.42132791      10.11787432  F        0
H        8.57917776       9.96978004       4.04186183  F        0
H       11.43576677      11.60834527       9.31342917  F        0
H       14.56690736       3.08960840      12.16034191  F        0
H       13.35632228       7.06085325       2.51220488  F        0
H       14.23421140       3.11626372      -0.07819396  F        0
H        5.18772305       6.48136951       6.94399129  F        0
H        5.18772305       3.38398261       6.94399129  F        0
H        6.78202892       6.52695113       2.93525138  F        0
H        6.78202891       3.33840099       2.93525138  F        0
H       18.37141861       2.74226592       2.89672377  F        0
H       16.04230866       5.86222357       3.96597143  F        0
H       13.51650675      -0.71595242      14.61047976  F        0
H       14.08297195      -0.95342037      -0.34490676  F        0
H        5.06295559      -0.97995304       7.26028496  F        0
H       16.97340650      -0.94135423      12.75613404  F        0
H        6.55301950      -1.44431996       3.13509397  F        0
H       18.17502403      -1.06794529       2.66186474  F        0
H       18.05303809      -3.38514467      10.35989921  F        0
H        8.48702655      -5.84645393       8.80063176  F        0
H        5.86807409      -3.11655948      13.33116226  F        0
H        4.26454119      -3.12925301       9.87579966  F        0
H       15.72702256      -5.84736437       5.99260349  F        0
H       12.17714150      -5.84801228       6.40017283  F        0
H       14.11111956      -5.86251936      10.59245558  F        0
Fe      10.13354377       3.32946572       8.55664570  T        0
Fe      11.94821347       4.56025425       6.36497142  T        0
O       11.33407403       4.59447514       8.06948219  T        0
