136
Lattice="24.397 0.0 0.0 0.0 24.397 0.0 0.0 0.0 24.397" Properties=species:S:1:pos:R:3:move_mask:L:1:tags:I:1 i=41 E=-6943.8331748197 regions="_JSON [\"Active\"]" n_terminators=24 energy=-953.3896087622979 pbc="F F F"
O        9.61651358      14.66367884      -0.19050740  T        0
O       12.26264675       9.46627971       2.64710540  T        0
O       14.91907611      20.84546982       6.44083639  T        0
O        9.66268959      18.59974261       3.40298243  T        0
O       15.65605210       9.84414374       6.56014204  T        0
O       21.07394522      12.27969842       3.53163193  T        0
O       20.89445403      15.85602636       0.12532319  T        0
O       18.25813893      20.95737033       2.60878616  T        0
O       14.77605549       9.57298683       0.01393292  T        0
O        9.58722772      12.16266586       2.66144101  T        0
O       20.77223222      14.88949902       6.45759764  T        0
O       18.35822077       9.44551540       3.44226864  T        0
O        9.72158376      15.59381168       6.50529321  T        0
O       11.96289886      20.84300923       3.42024074  T        0
O       15.86712127      20.85337178      -0.11570489  T        0
O       20.97324573      18.17118701       2.53332090  T        0
O       11.45856655      13.94868332       1.94246527  T        0
O       14.02540848      11.31508073       1.91814640  T        0
O       18.92090245      16.53689653       1.89592177  T        0
O       16.67826864      18.93476058       1.85135778  T        0
O       10.28603786      10.18014241       0.96965581  T        0
O       11.11445928      16.60372262       4.49481800  T        0
O       13.85117430      19.28673375       4.58343496  T        0
O       19.17401676      13.92761015       4.49152948  T        0
O       16.59752114      11.21996402       4.44256873  T        0
O       20.21191248      20.18022457       0.94344722  T        0
O       12.06253375      11.96750425       3.61864212  T        0
O       18.52746461      18.48635490       3.63834615  T        0
O       12.26111346       8.67584298       0.08041686  T        0
O        8.77225581      12.12205379       0.09475557  T        0
O       12.29084863      14.74621006       6.07677157  T        0
O       12.27175794      18.22945631       2.73663879  T        0
O       15.83235086      18.27641142       6.15045208  T        0
O       18.25175216      15.85010813       6.14349107  T        0
O       18.46037988      12.06236462       2.76515563  T        0
O       14.74024332      12.32449294       6.06086939  T        0
O       18.36534667      21.81765738       0.05330808  T        0
O       21.85374808      18.32928825       0.01529171  T        0
O       10.49780614      16.60724153       1.83772241  T        0
O       14.05531987      10.39454927       4.42514179  T        0
O       20.01983801      14.07409398       1.94077145  T        0
O       16.43861511      20.01764512       4.34056640  T        0
O       16.55001800      10.45061158       1.83770179  T        0
O       10.45737254      13.97694810       4.42853564  T        0
O       14.01694593      20.02653404       1.98674709  T        0
O       20.06612171      16.43182285       4.35725746  T        0
O       20.09932667      22.69952830       1.94489982  T        0
O        7.77515826      10.40809263       1.94625195  T        0
O       22.75611532      20.03699355       1.89648158  T        0
O       10.52468213       7.62968464       1.84776910  T        0
Al      10.84939699      15.18552403       0.88791733  T        0
Si      13.08498075      10.79234387       3.16273247  T        0
Si      19.61506893      15.30051094       0.96438189  T        0
Si      17.46455235      19.63209254       3.13560154  T        0
Si      15.23989131      10.84236776       0.93982876  T        0
Si      10.90391820      13.03143896       3.14641005  T        0
Al      15.28345502      19.61679388       0.90652856  T        0
Si      19.65930560      17.43231398       3.14823126  T        0
Si       9.10195475      11.22548300       1.41226159  T        0
Si      10.88653079      15.23214451       5.38076721  T        0
Si      13.05354228      19.63995993       3.19807916  T        0
Si      19.57151132      15.24029885       5.38825673  T        0
Si      17.47503946      10.80199042       3.13012545  T        0
Si      21.45748133      19.20672172       1.33955694  T        0
Si      11.32196963       8.99346112       1.38678367  T        0
Si      15.27515288      10.93228551       5.37692883  T        0
Si      19.66581436      13.06230785       3.19112763  T        0
Si      15.23983601      19.60453171       5.39449330  T        0
Si      10.81779472      17.46395003       3.14193066  T        0
Si      19.23547386      21.42994923       1.36897285  T        0
O       14.81466298      12.11164938      -2.58866284  T        0
O       15.82970799      18.41322780      -2.46376239  T        0
O       12.04733925      14.72777483      -2.48956430  T        0
O       18.33171439      15.73272578      -2.59430775  T        0
O       14.03430218      13.98754527      -0.87242500  T        0
O       16.54760323      16.48568748      -0.75155056  T        0
O       13.04426767      10.18621101      -1.95821216  T        0
O       10.07236525      12.88673438      -2.11085415  T        0
O       17.62760882      20.40654608      -2.07244597  T        0
O       20.25334501      17.47277386      -1.91799464  T        0
O       12.32835430      15.82320046      -0.02385298  T        0
O       15.66478147      12.08595207      -0.03433212  T        0
O       18.41218231      14.85367440      -0.03796693  T        0
O       14.71928799      18.14026950       0.02625022  T        0
O       12.27832712      12.24443231      -3.43903167  T        0
O       18.28360345      18.25880064      -3.48638853  T        0
O       16.55486312      13.94247904      -1.71960743  T        0
O       14.04809814      10.48186364      -4.47185082  T        0
O       22.74967945      16.45225338      -1.71459071  T        0
O       16.47738688      19.99384543      -4.48001294  T        0
O        7.53593977      13.70204597      -1.58573966  T        0
O       14.09141373      16.42672072      -1.92259977  T        0
O       10.53091697      13.98798224      -4.52237894  T        0
O       16.59578936      22.88477335      -1.62895340  T        0
O       20.04758236      16.42425430      -4.42583948  T        0
O       14.04685341       7.69223201      -1.69688985  T        0
Si      15.26295351      13.00915970      -1.30378994  T        0
Si      15.25970308      17.39895845      -1.33723398  T        0
Si      13.09819265      15.22643373      -1.35595459  T        0
Si      17.46908293      15.21222444      -1.32275533  T        0
Si      13.51855107       9.02827759      -0.89394713  T        0
Si      11.21491834      13.44673385      -3.12626857  T        0
Si      17.09624901      21.48410141      -0.93447206  T        0
Si      19.24654260      16.99767280      -3.11875007  T        0
Si       9.01205551      13.37003015      -0.93361621  T        0
Si      13.52245769      11.24048515      -3.11442229  T        0
Si      21.45307583      17.03594404      -0.89428273  T        0
Si      17.06740687      19.29087743      -3.11928607  T        0
H       14.01033133      21.15748981       6.62630180  F        0
H        9.33839640      18.82463975       4.28720704  F        0
H       16.48559112       9.33840607       6.62628668  F        0
H       21.15750258      11.67126816       4.28721909  F        0
H       21.15748967      14.01033142       6.62630180  F        0
H       18.82463962       9.33839646       4.28720704  F        0
H        9.33840600      16.48559124       6.62628668  F        0
H       11.67126808      21.15750273       4.28721909  F        0
H       12.70105695      15.05290863       6.89848520  F        0
H       15.44301084      17.79487314       6.89846715  F        0
H       17.79487301      15.44301094       6.89846715  F        0
H       15.05290853      12.70105704       6.89848521  F        0
H       20.83112530      23.15241223       1.48839475  F        0
H        7.34352333       9.66479174       1.48837704  F        0
H       23.15241204      20.83112542       1.48839475  F        0
H        9.66479163       7.34352337       1.48837704  F        0
H       13.68673308       9.66480596      -4.85513656  F        0
H       23.15240156      16.80916493      -2.53384338  F        0
H       16.80913871      20.83112323      -4.85512183  F        0
H        7.34352146      13.68671965      -2.53387758  F        0
H        9.66480591      13.68673318      -4.85513656  F        0
H       16.80916481      23.15240172      -2.53384338  F        0
H       20.83112308      16.80913882      -4.85512183  F        0
H       13.68671953       7.34352150      -2.53387758  F        0
Fe      13.41605382      16.86536255       1.38791106  T        0
Fe      16.66275987      16.86257730       1.53066461  T        1
O       14.92554385      16.63521235       2.71407679  T        2
O       15.14484278      15.58018829       1.69945167  T        3
