139
Lattice="24.397 0.0 0.0 0.0 24.397 0.0 0.0 0.0 24.397" Properties=species:S:1:pos:R:3:move_mask:L:1:tags:I:1 i=41 E=-6943.8331748197 regions="_JSON [\"Active\"]" n_terminators=32 energy=-936.1986961164022 pbc="F F F"
O       21.66469670       2.60084486       0.04917299  T        0
O       21.87373343       6.15308836       3.50722748  T        0
O       15.71177618       9.77441210       6.20685158  T        0
O       20.83084100      12.34684897       3.63667482  T        0
O       21.00649773       3.56479913      12.50724038  T        0
O       15.51730093       6.31983599       9.76027905  T        0
O       21.84955760      -0.03903241       2.54529676  T        0
O       18.29690800       9.77505440       3.55107973  T        0
O       21.81439111       3.55904187       5.93426210  T        0
O       18.38704903       3.29225797       9.64534631  T        0
O       23.73263986       1.71170942       1.78890230  T        0
O       22.83893314       5.41518478       8.02510944  T        0
O       22.63478427       7.99228192       5.32502146  T        0
O       17.67812428      10.50381890       7.91107338  T        0
O       20.16562355      10.46284693       5.37402412  T        0
O       23.67901028       4.26852349       4.21460572  T        0
O       18.87151108      14.13577459       4.27279264  T        0
O       16.30737727      11.46120971       4.18429941  T        0
O       17.64753088       7.86943500      10.55376909  T        0
O       20.06640240       5.19684396      10.58941512  T        0
O       20.87075835       5.98943222       5.85933885  T        0
O       18.20287826       8.78157843       6.03323503  T        0
O       22.01535819      12.32446845       6.08876459  T        0
O       20.96703257       0.02610458       0.02128430  T        0
O       24.34154306       2.66552138       6.28016100  T        0
O       24.39565467       6.25743629       2.57932451  T        0
O       18.31483702      12.25768176       2.60085911  T        0
O       14.61745464      12.26121958       6.14340717  T        0
O       18.06792484       5.89000726       8.96062037  T        0
O       21.97851668       6.11110422      12.28468976  T        0
O       22.64097712       4.36166143       1.75508654  T        0
O       13.83406220      10.40035632       4.40905833  T        0
O       22.65504375       4.37711820      10.50751381  T        0
O       20.12023446       8.01943532       4.32233161  T        0
O       16.61218637       7.99634240       8.04215603  T        0
O       22.65585580      10.48618227       4.37083678  T        0
O       20.19991438      14.07735990       1.83458696  T        0
O       16.57936196      10.40350519       1.67958090  T        0
O       22.80741692       1.72758187       4.29310329  T        0
O       20.06625264       4.40733443       8.01618598  T        0
Al      23.33125243       3.02092398       0.74439356  T        0
Si      23.67025117       4.87571379       9.31206979  T        0
Si      21.38622690       7.10793192       4.78087354  T        0
Si      17.01830312       9.24900408       7.06187605  T        0
Si      21.39683850      11.42453148       4.86556152  T        0
Si      23.21079189       0.78692178       3.00095586  T        0
Si      19.18165076       9.27504809       4.82519261  T        0
Al      21.46848342       4.87686441       7.15079791  T        0
Si      23.60362148       9.25323222       4.87416645  T        0
Si      23.19571623       3.02655760       5.19283323  T        0
Si      17.34818332      10.99599164       3.00444518  T        0
Si      19.15879178       4.71294778       9.30321182  T        0
Si      15.13656202      10.98254412       5.23803783  T        0
Si      19.55347628      13.21801904       3.07807745  T        0
Si      23.18670483       5.26505726       3.01720188  T        0
Si      21.39306312       4.80457016      11.47682688  T        0
Si      16.95657536       7.01428331       9.32303868  T        0
O       24.59956516       3.60472969       8.80159253  T        0
O       24.57747460       8.72223096       3.66386769  T        0
O       26.32769461       6.71326042       4.24492557  T        0
O       26.31733448       4.23786070       6.73834505  T        0
O       24.46916040       9.80521608       6.15262119  T        0
O       24.65511684       6.04793222       9.93216839  T        0
O       26.28561590       8.04501979       1.81549028  T        0
O       26.23687793       1.77456640       8.01770649  T        0
Si      25.42114996       7.44261689       3.07677659  T        0
Si      25.39507570       3.08089340       7.47541584  T        0
O       24.69261316       2.42309544      -2.82231960  T        0
O       26.24178956       1.80099592      -0.69084133  T        0
O       24.35056722      -0.15534759      -3.58474256  T        0
O       26.51480154       4.18377296      -2.06411592  T        0
Si      25.47718558       3.02801837      -1.49665694  T        0
O       24.60947760      -2.70370593       2.41808689  T        0
O       26.30924328      -0.64215291       1.85271541  T        0
O       24.44605916      -3.70482842      -0.08515467  T        0
O       26.31907723      -1.97850466       4.27054438  T        0
Si      25.41801219      -1.40228423       3.01502611  T        0
O       17.97618796       2.43181597      -3.43413439  T        0
O       20.99823931       2.52818761      -6.38643628  T        0
O       19.98844331       0.95793109      -4.47484531  T        0
O       22.67583656       0.99573709      -1.80056220  T        0
O       24.43333166       3.61645235      -0.41599044  T        0
O       18.36311964      -0.13835017      -2.61236374  T        0
O       21.89854993      -0.05431646      -6.11739492  T        0
O       20.06138531       1.67890668      -1.89193090  T        0
O       22.59051879       1.68946300      -4.36036258  T        0
Si      19.08138628       1.23692954      -3.14029176  T        0
Si      21.34339492       1.28420817      -5.34868691  T        0
Si      23.60058557       1.24242591      -3.14586289  T        0
Si      21.32765332       1.29077565      -0.93765187  T        0
O       18.01003790      -3.43104671       2.45299492  T        0
O       21.00005194      -6.40979438       2.51875073  T        0
O       22.64314582      -1.89145083       0.79222471  T        0
O       20.00480094      -4.47349476       0.96379016  T        0
O       24.35631080      -0.26361986       3.50945116  T        0
O       18.36427138      -2.62010819      -0.13002761  T        0
O       21.90689759      -6.12160657      -0.05336055  T        0
O       20.09701427      -1.88999774       1.66932823  T        0
O       22.60970916      -4.38534479       1.71062304  T        0
Si      21.38376118      -0.96070271       1.26564251  T        0
Si      21.35202881      -5.35691219       1.28918196  T        0
Si      23.59047308      -3.16683618       1.21361735  T        0
Si      19.10281464      -3.13242091       1.24476899  T        0
H       20.10951519       3.23923103      12.72546793  F        0
H       15.43757911       5.57209275      10.38640946  F        0
H       17.77043311       3.23924387      10.38640412  F        0
H       17.22544067      10.92750153       8.65411313  F        0
H       19.36965547      14.75328399       4.82834093  F        0
H       17.22544070       8.65411150      10.92750362  F        0
H       21.54216027      12.99764967       6.60187561  F        0
H       15.05290853      12.70105704       6.89848521  F        0
H       21.54216028       6.60187434      12.99765198  F        0
H       13.44269068      10.71000821       3.56560630  F        0
H       19.78591980      14.73191782       1.24430354  F        0
H       15.76397041      10.70999753       1.24433830  F        0
H       26.95194123       7.17131746       4.82834527  F        0
H       26.95194124       4.82834452       7.17131883  F        0
H       25.19630608       9.34383456       6.60185911  F        0
H       25.19630604       6.60185806       9.34383627  F        0
H       26.93058105       7.58756876       1.24433203  F        0
H       26.93058086       1.24433163       7.58757011  F        0
H       26.95192867       1.27083937      -1.07240246  F        0
H       25.19622735      -0.50276655      -3.24494277  F        0
H       26.93057835       4.85486043      -1.48866112  F        0
H       26.95192866      -1.07240650       1.27083969  F        0
H       25.19622853      -3.24494603      -0.50276481  F        0
H       26.93057847      -1.48866524       4.85486109  F        0
H       17.77043356       2.85994955      -4.28747201  F        0
H       20.10952426       2.85994950      -6.62656333  F        0
H       17.49833355      -0.50278089      -2.85477948  F        0
H       21.54221652      -0.50278066      -6.89866328  F        0
H       17.77043326      -4.28747560       2.85995000  F        0
H       20.10952426      -6.62656664       2.85995001  F        0
H       17.49833238      -2.85478383      -0.50277915  F        0
H       21.54221602      -6.89866750      -0.50277915  F        0
Fe      20.39271576       4.34155634       4.61404154  T        0
Fe      20.71003711       3.44519042       1.58165539  T        1
O       19.38162618       4.33513235       2.85846219  T        2
O       19.76216374       2.93087222       3.29484405  T        3
