141
Lattice="24.397 0.0 0.0 0.0 24.397 0.0 0.0 0.0 24.397" Properties=species:S:1:pos:R:3:move_mask:L:1:tags:I:1 i=41 E=-6943.8331748197 regions="_JSON [\"Active\"]" n_terminators=30 energy=-966.0555044239338 pbc="F F F"
O       21.67159872       2.54663777       0.10440668  T        0
O       21.85439032       6.19516423       3.42161914  T        0
O       15.70166434       9.78742988       6.20014165  T        0
O       20.81626084      12.35406650       3.65959139  T        0
O       20.98447096       3.64133077      12.55304284  T        0
O       15.49667548       6.33738471       9.77916704  T        0
O       21.95746860      -0.11666512       2.50811259  T        0
O       18.27074503       9.78373501       3.55872559  T        0
O       21.73258235       3.50612493       5.92089006  T        0
O       18.31163693       3.29894513       9.59029486  T        0
O       23.81241346       1.66545519       1.77967443  T        0
O       22.77880041       5.34762059       7.97597691  T        0
O       22.56618271       7.97448414       5.29734400  T        0
O       17.67028295      10.51005080       7.90305316  T        0
O       20.14667259      10.44722753       5.37448057  T        0
O       23.61874024       4.31894511       4.25593384  T        0
O       18.85999058      14.14929162       4.26867903  T        0
O       16.28530342      11.47825103       4.17276726  T        0
O       17.64732456       7.87735738      10.53850943  T        0
O       20.00467604       5.16816871      10.56744065  T        0
O       20.82291559       5.94435654       5.78134375  T        0
O       18.18174702       8.77303874       6.03510885  T        0
O       21.99925057      12.29479397       6.11550285  T        0
O       20.92300653      -0.01647957       0.02482729  T        0
O       24.29492419       2.69661919       6.26581998  T        0
O       24.40437636       6.21581267       2.56901148  T        0
O       18.30781800      12.26412296       2.60142142  T        0
O       14.60902208      12.27214861       6.14270644  T        0
O       18.02982028       5.90512643       8.93135459  T        0
O       21.91761365       6.17631541      12.21150204  T        0
O       22.65407778       4.32146396       1.76491003  T        0
O       13.81845913      10.40733565       4.41694428  T        0
O       22.59553416       4.38947149      10.48764894  T        0
O       20.06765158       8.00664625       4.29454103  T        0
O       16.57244653       8.01648161       8.04540076  T        0
O       22.63643707      10.48366635       4.38081476  T        0
O       20.19800372      14.07716674       1.83711689  T        0
O       16.58086969      10.40626660       1.67552021  T        0
O       22.74785018       1.77730379       4.23381120  T        0
O       19.99792531       4.41232021       7.97422326  T        0
Al      23.34403058       2.98407111       0.75991385  T        0
Si      23.60640328       4.82773880       9.26652631  T        0
Si      21.33695226       7.08541796       4.72171760  T        0
Si      17.00078849       9.25678690       7.05954948  T        0
Si      21.37768575      11.41393979       4.87784010  T        0
Si      23.24437257       0.78975670       3.01174425  T        0
Si      19.15625702       9.26583501       4.82263034  T        0
Al      21.40078555       4.85303747       7.10148242  T        0
Si      23.55514649       9.20758784       4.82810302  T        0
Si      23.13983596       3.04129530       5.18611304  T        0
Si      17.33523260      11.00655920       3.00411975  T        0
Si      19.10283894       4.71303127       9.26682675  T        0
Si      15.12393594      10.99448974       5.23498165  T        0
Si      19.54532535      13.22338799       3.08206433  T        0
Si      23.16222086       5.27096034       3.00676396  T        0
Si      21.34279680       4.83170617      11.45705276  T        0
Si      16.92943489       7.02968002       9.31833639  T        0
O       27.01125532       8.63780999       6.14161516  T        0
O       24.50058864       3.50993854       8.81760952  T        0
O       27.05981175       6.13926672       8.67422947  T        0
O       24.44469195       8.70781098       3.54278404  T        0
O       25.24828031       8.01954771       8.08629726  T        0
O       26.39655687       6.94838810       4.13978436  T        0
O       26.38940934       4.13362913       6.99323613  T        0
O       24.51572990       9.58290023       6.08141582  T        0
O       24.61761101       6.02174273       9.75610665  T        0
O       27.91327992       6.11485218       6.13567401  T        0
O       26.30907533      10.51316798       7.87091214  T        0
O       28.89126116       7.94474545       4.40017902  T        0
O       26.38071048       7.90594754      10.53179859  T        0
O       26.16977390       8.03104941       1.66184084  T        0
O       28.90138657       4.39298265       7.96370811  T        0
O       26.10287770       1.60970156       7.95068487  T        0
Si      25.76783456       9.18818614       7.06367125  T        0
Si      25.80984863       7.02195005       9.26771720  T        0
Si      25.37079039       7.47683586       2.98636064  T        0
Si      27.56139173       5.18969860       7.44026640  T        0
Si      27.55973905       7.40897844       5.20568293  T        0
Si      25.33305940       2.99274957       7.50902819  T        0
O       24.71162803       2.38629861      -2.79110508  T        0
O       26.28472713       1.82866739      -0.65361109  T        0
O       24.33092074      -0.18279721      -3.55543846  T        0
O       26.50070495       4.19056822      -2.06135158  T        0
Si      25.48516708       3.02491980      -1.47669807  T        0
O       18.13219821       2.37508172      -3.60893262  T        0
O       20.82273795       2.42015869      -6.24228885  T        0
O       20.09884695       0.71074447      -4.34168783  T        0
O       22.67213167       0.98187782      -1.76950507  T        0
O       18.87115085       1.85518739      -8.06079177  T        0
O       16.29695380       1.87614099      -5.54705233  T        0
O       24.43012845       3.60363846      -0.40367494  T        0
O       18.29937207      -0.10237483      -2.48557492  T        0
O       21.96926552      -0.05104275      -6.15571148  T        0
O       18.32855774       3.45287353      -6.07480620  T        0
O       20.05988686       1.68295278      -1.85021304  T        0
O       22.60604491       1.67539520      -4.33458160  T        0
O       20.15168857       4.30631492      -7.91128543  T        0
O       16.49699946       4.31216811      -4.25692312  T        0
Si      19.12735285       1.17495455      -3.10535850  T        0
Si      21.35809533       1.19838654      -5.28491687  T        0
Si      23.60277779       1.22188379      -3.11312471  T        0
Si      19.54294565       3.01429871      -7.09083826  T        0
Si      21.32292647       1.26517609      -0.90417282  T        0
Si      17.29620731       3.01225717      -4.87876519  T        0
O       22.54618990      -1.95960781       0.57279441  T        0
O       24.37019501      -0.16287190       3.74284204  T        0
O       20.10221123      -1.83376520       1.87688502  T        0
Si      21.38147117      -1.00548464       1.25455291  T        0
H       20.10951519       3.23923103      12.72546793  F        0
H       15.43757911       5.57209275      10.38640946  F        0
H       17.77043311       3.23924387      10.38640412  F        0
H       17.22544067      10.92750153       8.65411313  F        0
H       19.36965547      14.75328399       4.82834093  F        0
H       17.22544070       8.65411150      10.92750362  F        0
H       21.54216027      12.99764967       6.60187561  F        0
H       15.05290853      12.70105704       6.89848521  F        0
H       21.54216028       6.60187434      12.99765198  F        0
H       13.44269068      10.71000821       3.56560630  F        0
H       19.78591980      14.73191782       1.24430354  F        0
H       15.76397041      10.70999753       1.24433830  F        0
H       25.88537327      10.95404844       8.63278900  F        0
H       29.25185888       7.58759487       3.56561113  F        0
H       25.88537328       8.63278754      10.95405052  F        0
H       26.93058105       7.58756876       1.24433203  F        0
H       29.25185918       3.56561063       7.58759619  F        0
H       26.93058086       1.24433163       7.58757011  F        0
H       26.95192867       1.27083937      -1.07240246  F        0
H       25.19622735      -0.50276655      -3.24494277  F        0
H       26.93057835       4.85486043      -1.48866112  F        0
H       19.36968740       1.27081557      -8.65438303  F        0
H       15.74261410       1.27081536      -5.02730892  F        0
H       17.49833355      -0.50278089      -2.85477948  F        0
H       21.54221652      -0.50278066      -6.89866328  F        0
H       19.78593015       4.85484827      -8.63303166  F        0
H       15.76396555       4.85484859      -4.61106623  F        0
H       23.12589418      -2.55519498       1.07214050  F        0
H       24.89950013      -0.79949361       3.24468082  F        0
H       19.54187317      -2.53384464       1.48839915  F        0
Fe      20.32930279       4.27710859       4.59445620  T        0
Fe      20.71786476       3.45224932       1.61253650  T        1
O       19.61468757       3.69748519       3.03157136  T        2
