148
Lattice="24.397 0.0 0.0 0.0 24.397 0.0 0.0 0.0 24.397" Properties=species:S:1:pos:R:3:move_mask:L:1:tags:I:1 i=41 E=-6943.8331748197 regions="_JSON [\"Active\"]" n_terminators=24 energy=-1048.8544333391292 pbc="F F F"
O        9.68236427      14.44972303      -0.07610621  T        0
O       12.25598417       9.48613868       2.56433307  T        0
O       14.92630405      20.90072354       6.20011972  T        0
O       12.20496027      15.72478048       8.74429252  T        0
O        9.73622832      18.35010609       3.82604527  T        0
O       15.65074765       9.43411724       6.14163113  T        0
O       18.35547789      14.85330238       8.86201170  T        0
O       21.07859037      12.16910860       3.45302832  T        0
O       21.08217281      15.64256372      -0.04171933  T        0
O       18.30276716      21.07720369       2.62848055  T        0
O       14.76417948       9.59601720      -0.00711437  T        0
O        9.61127675      12.24278448       2.44192372  T        0
O       21.08397711      14.81918680       6.08498949  T        0
O       15.64681777      12.15279732       8.85737919  T        0
O       18.33363103       9.42931697       3.45230800  T        0
O        9.60350219      15.86667257       6.07833124  T        0
O       14.81479916      18.27676077       8.76341485  T        0
O       11.96877801      20.98389914       3.56072244  T        0
O       15.62215070      20.72780052      -0.42898563  T        0
O       21.09499583      18.27059437       2.61166346  T        0
O       11.54785529      14.13340534       2.12330762  T        0
O       14.04212079      11.35964306       1.87590231  T        0
O       13.11838526      20.24587614       8.10699989  T        0
O       10.26140200      17.46578891       8.13537516  T        0
O       10.15314667      20.46946272       5.45287734  T        0
O       19.26290908      16.46776094       1.77575204  T        0
O       16.60924729      19.27465407       1.63984674  T        0
O       10.30293435      10.17760837       0.87366526  T        0
O       11.43872893      16.26674146       4.14031841  T        0
O       14.02268284      19.16428002       4.37696396  T        0
O       14.07908791      16.45393037       6.96050467  T        0
O       19.25795711      13.99134835       4.27709019  T        0
O       16.55764018      11.25578122       4.34600038  T        0
O       16.56431453      13.94278481       7.04823625  T        0
O       12.06192225      11.97986001       3.53574416  T        0
O       12.38872465      21.76833187       6.10992915  T        0
O       12.28578187      18.25121043       9.63793407  T        0
O        8.68749552      18.38580835       6.23925266  T        0
O       18.48940681      18.45088218       3.30793128  T        0
O       12.26647145       8.64284420       0.01623902  T        0
O        8.65197825      11.99631435      -0.05843320  T        0
O       12.11803033      14.84705773       6.22052761  T        0
O       12.08393507      18.25412250       2.50606473  T        0
O       15.76267403      18.38229199       6.23568191  T        0
O       18.48560776      15.56321472       6.24797223  T        0
O       18.48028424      12.03132125       2.70291273  T        0
O       14.91685971      12.04748462       6.24561704  T        0
O       10.17365485      16.57921393       1.82239988  T        0
O       14.00119216      10.39692802       4.37223720  T        0
O       14.17825797      22.72684804       7.90968860  T        0
O       10.51662075      16.46268153      10.63168324  T        0
O        7.75203830      20.00473910       4.29874576  T        0
O       10.61904500      23.02956267       4.70381182  T        0
O       20.09868556      13.91407028       1.72320234  T        0
O       16.55656524      19.99919272       4.27036784  T        0
O       16.55590677      10.43297074       1.79030329  T        0
O       10.39468360      13.83760400       4.47680503  T        0
O        7.77203027      16.41723041       7.85292899  T        0
O       14.06885527      19.99348604      10.63564586  T        0
O       13.97776630      19.89001096       1.59109488  T        0
O       20.06731217      16.54785072       4.33948853  T        0
O        7.82633102      10.37722024       1.94471275  T        0
O       16.58708928      16.49474387       7.88438760  T        0
O       13.98964701      13.93323534       7.86248354  T        0
O       10.53000492       7.64190488       1.81930099  T        0
Al      10.81739359      15.26620462       0.87904150  T        0
Si      13.09391380      10.78719825       3.08145419  T        0
Si      13.64410763      21.41428396       7.07583943  T        0
Si      11.31586646      16.99089117       9.29668391  T        0
Si       9.09526255      19.33659138       4.96871950  T        0
Si      19.73886401      15.22948595       0.82187359  T        0
Si      17.48483457      19.68563861       2.98133606  T        0
Si      15.26470394      10.86550643       0.89345818  T        0
Si      10.86287817      13.00406885       3.13229033  T        0
Si       9.07801018      17.05641469       7.09431779  T        0
Si      13.56923031      19.20812578       9.28203911  T        0
Si      11.29853305      21.54549797       4.91863553  T        0
Si      15.30281228      19.61124187       0.73180048  T        0
Si      19.72747028      17.43728957       3.00946435  T        0
Si       9.08976693      11.19044366       1.28157012  T        0
Si      10.83837528      15.19473793       5.28246689  T        0
Al      13.02630650      19.70807549       3.07399843  T        0
Si      15.31492348      17.42203060       7.45998407  T        0
Si      19.72330801      15.22687745       5.24353322  T        0
Si      17.49158391      10.79521236       3.07943810  T        0
Si      15.29504071      13.01735444       7.50060543  T        0
Si      11.32748633       8.98095844       1.30810744  T        0
Si      15.29846658      10.79046488       5.28096361  T        0
Si      19.72800931      13.02343284       3.04595568  T        0
Si      17.50514183      15.20931206       7.49815979  T        0
Si      15.29343241      19.60616930       5.25205837  T        0
Si      10.78506798      17.40832811       3.04720175  T        0
Si      13.11173287      15.24784429       7.47277714  T        0
O       14.78122562      12.16296048      -2.59807413  T        0
O       15.63450760      18.36516419      -2.75554873  T        0
O       12.02778404      14.69963800      -2.44987779  T        0
O       18.40496821      15.60866895      -2.78243732  T        0
O       14.05806921      14.04536063      -0.84628196  T        0
O       16.59419073      16.50361287      -1.03830238  T        0
O       13.02887654      10.21951880      -1.97131511  T        0
O       10.07994977      12.82485914      -2.14512849  T        0
O       12.26274364      15.87501298      -0.02067540  T        0
O       15.67471005      12.11109173      -0.07027792  T        0
O       18.49289135      14.87335260      -0.17223555  T        0
O       14.85460270      18.21454518      -0.12122316  T        0
O       12.27329879      12.24758509      -3.50276366  T        0
O       16.58399540      13.93901537      -1.77867272  T        0
O       14.06676929      10.47380131      -4.46994365  T        0
O        7.63363953      13.89432719      -1.63490145  T        0
O       14.00641604      16.48050622      -1.90477655  T        0
O       10.50980375      14.02739790      -4.50680434  T        0
O       14.10197318       7.74061820      -1.74779857  T        0
Si      15.28005228      13.06078582      -1.32886680  T        0
Si      15.30852606      17.37547676      -1.49691371  T        0
Si      13.07080307      15.25154672      -1.32701296  T        0
Si      17.53620764      15.21730515      -1.43544294  T        0
Si      13.53047824       9.04922040      -0.93716171  T        0
Si      11.21759075      13.43909949      -3.14390847  T        0
Si       9.02055552      13.30595854      -0.98067169  T        0
Si      13.52255804      11.26156693      -3.13715327  T        0
H       16.48559112       9.33840607       6.62628668  F        0
H       18.82464116      14.01032609       8.95915608  F        0
H       21.15750258      11.67126816       4.28721909  F        0
H       21.15749781      16.48550533      -0.52720743  F        0
H       18.82463422      21.15752504       1.81198193  F        0
H       21.15748967      14.01033142       6.62630180  F        0
H       16.48560162      11.67124930       8.95913012  F        0
H       18.82463962       9.33839646       4.28720704  F        0
H       16.48550522      21.15749796      -0.52720744  F        0
H       21.15752488      18.82463433       1.81198193  F        0
H       13.68673605      23.15239550       8.63276462  F        0
H        9.66477675      16.80915558      10.95402362  F        0
H        7.34351903      20.83116256       4.61081863  F        0
H        9.66481601      23.15243056       4.61081458  F        0
H        7.34350493      16.80917637       8.63275504  F        0
H       13.68672539      20.83112809      10.95404502  F        0
H        7.34352333       9.66479174       1.48837704  F        0
H        9.66479163       7.34352337       1.48837704  F        0
H       16.48557283      18.82464187      -2.86023677  F        0
H       18.82464171      16.48557294      -2.86023676  F        0
H       13.68673308       9.66480596      -4.85513656  F        0
H        7.34352146      13.68671965      -2.53387758  F        0
H        9.66480591      13.68673318      -4.85513656  F        0
H       13.68671953       7.34352150      -2.53387758  F        0
Fe      13.44629939      17.29509192       1.22425605  T        0
Fe      13.03215961      15.18060148       3.07437412  T        1
O       14.53287784      15.53889707       1.80376350  T        2
O       14.48808551      16.50694658       2.93513530  T        3
