127
Lattice="20.102 0.0 0.0 0.0 19.731 0.0 0.0 0.0 13.253" Properties=species:S:1:pos:R:3:move_mask:L:1:tags:I:1 i=77 E=-3472.0240129048 regions="_JSON [\"Active\"]" n_terminators=26 energy=-878.9196727909869 pbc="F F F"
O       10.43807260       1.14042168       9.47150549  T        0
O        7.59011052       1.01706074      10.37962508  T        0
O        8.60571221       2.72770837       8.12942892  T        0
O        8.55511931       7.81614153       7.87056993  T        0
O        8.54039785       0.14749938       7.67047358  T        0
O        6.52230128       1.07852555      12.77223873  T        0
O        3.77146407       9.13246978       3.91102510  T        0
O        3.54794459       0.72586973       4.26320807  T        0
O        4.93598253       1.21599854      10.57419330  T        0
O        6.14751143       2.39664784       1.06670545  T        0
O        5.71009028       7.21071691       1.04725570  T        0
O        3.85413742       1.49745409       0.18101630  T        0
O       14.17059381       1.34116705       6.27646803  T        0
O        5.30152869      -0.09632775       1.74990871  T        0
O       12.22371590       7.32195501       5.59041495  T        0
O       11.60826310       2.29860907       5.60992810  T        0
O       11.74217954       0.47988316       7.27193291  T        0
O        2.35805643       1.69894801       9.99238848  T        0
O       13.21581733       1.00890926       9.32037139  T        0
O        8.20219303       9.16849631       3.64607770  T        0
O        8.76295349       0.97974451       4.60394328  T        0
O        4.20676948       2.65529203       8.42483180  T        0
O        3.80814811       7.31085323       8.59220038  T        0
O       10.01866318       3.05138084       3.41825898  T        0
O       10.14220156       7.24975589       3.84229135  T        0
O        2.32917770       6.78937331       3.77542710  T        0
O        2.10287899       2.90097414       3.73704105  T        0
O       12.95061597       2.56204850       3.35087130  T        0
O       12.49187056       7.35093655       2.84608603  T        0
O       11.76984809       5.11481260       4.29413645  T        0
O        3.75836500       7.29296595       5.90793494  T        0
O        3.85350171       2.87479602       5.78664564  T        0
O        5.05232719       6.83796743       3.62956651  T        0
O        4.70001809       2.89353610       3.24710505  T        0
O        4.28530445       5.05226371       7.26780831  T        0
O        6.07273471       7.05242130       7.22108237  T        0
O        6.24712810       3.27892800       6.85868493  T        0
O        8.00237220       5.23557607       7.34619981  T        0
O        8.05412724       7.11882781       5.44197740  T        0
O        8.63808660       3.24709554       5.66976113  T        0
O        7.65012044       6.77145451       2.89866148  T        0
O        7.31875275       2.89670740       3.37078748  T        0
O        6.02394362       4.86115021       2.09036395  T        0
Al       8.71691418       1.24338840       9.12407388  T        0
Si       6.29579139       0.55972645      11.22435721  T        0
Si       5.38217046       1.03143566       0.58375152  T        0
Si      12.60895652       1.01145852       5.92509203  T        0
Si      11.75258166       0.37404756       8.94674005  T        0
Si       3.84461323       1.37483014       9.37251269  T        0
Al      11.61877925       3.39274211       4.09669604  T        0
Si      11.67674832       6.71533153       4.14621910  T        0
Si       3.71650299       7.52230955       4.28735345  T        0
Si       3.56030996       2.35246137       4.27063727  T        0
Si       4.48547252       6.67287488       7.23428470  T        0
Si       4.63067038       3.47088878       7.08870228  T        0
Si       7.65789496       6.79267091       6.95949618  T        0
Si       7.81453131       3.65549250       7.05260166  T        0
Si       8.56806675       7.59521716       3.97139675  T        0
Si       8.68763340       2.58963297       4.14232018  T        0
Si       6.11743744       6.45042641       2.44413765  T        0
Si       6.04671978       3.28389575       2.43817997  T        0
O        6.17994651       0.25830570      -0.61582100  T        0
O       10.05354796      -1.21096228       3.98087405  T        0
O        2.32984312      -1.65885113       3.89426892  T        0
O       12.18973562      -1.41760825       2.48124412  T        0
O       12.04198692      -2.77354695       4.79109074  T        0
O       12.44296178      -0.17037815       4.82618587  T        0
O        3.68382797      -1.19978742       6.10873500  T        0
O        6.10971006      -1.06906276      11.12463220  T        0
O        5.03450130      -1.49186069       3.88381050  T        0
O        4.17155732      -2.60649321       8.27601046  T        0
O        6.01427361      -0.80182305       7.38176073  T        0
O        3.76990348       0.01643594       8.46795216  T        0
O        7.94679477      -2.50775450       7.88420245  T        0
O        7.92169826      -1.31672321       5.57469071  T        0
O        7.53056814      -0.87647850       3.02363862  T        0
O       11.69421336      -1.20049406       9.37748246  T        0
O        6.17763649      -2.69044039       1.70843580  T        0
O       10.11597034      -3.38897506       9.10167199  T        0
O        7.85245361      -3.02778516      10.46553507  T        0
O        8.00781718      -5.01796585       8.63449145  T        0
O        6.66197883      -3.13077774      12.77617983  T        0
O        5.21324946      -3.49783757      10.55666474  T        0
O       14.19552656      -3.95329080       5.99128550  T        0
O       11.81518031      -5.09507802       5.91200112  T        0
O       12.16790972      -2.86271058       7.42504749  T        0
O        2.67915294      -2.86323122      10.53820361  T        0
O       12.49388643      -3.70271284       9.97745737  T        0
O        3.51741697      -5.05784248       9.16868295  T        0
Si      11.67742487      -1.38280103       4.03402489  T        0
Si       3.64399393      -0.88227053       4.51411108  T        0
Si       4.42216317      -1.16299674       7.56051067  T        0
Si       7.59922284      -1.10860245       7.15677180  T        0
Si       8.56380530      -0.63301340       4.25548930  T        0
Si       6.00460443      -1.31211802       2.58156298  T        0
Si       8.49510080      -3.50511820       9.04103882  T        0
Si       6.45149309      -2.65758533      11.21773249  T        0
Si      12.57408049      -3.64885922       6.05146073  T        0
Si      11.60703882      -2.77311177       8.95498683  T        0
Si       3.88361571      -3.51447775       9.61390071  T        0
H        8.32487050       7.90186745       8.80281456  F        0
H        6.01931354       0.95312461      13.59787507  F        0
H        3.45925242       9.91158019       4.41179507  F        0
H        5.69664665       8.18021685       1.05659762  F        0
H        3.12887898       0.94105847       0.49683427  F        0
H       15.03932989       0.97965726       5.99268335  F        0
H       12.40451339       8.25291401       5.80455660  F        0
H        1.92726146       1.06764952      10.59110356  F        0
H       13.54926599       1.44402420      10.11787433  F        0
H        8.57917776       9.96978004       4.04186183  F        0
H        4.22937585       8.00675492       9.12987558  F        0
H        2.04924741       6.48050321       2.89306910  F        0
H        2.04924740       3.38484890       2.89306909  F        0
H       13.35632229       2.80449888       2.51220488  F        0
H       13.35632228       7.06085325       2.51220488  F        0
H        6.58577873       0.71565665      -1.35751145  F        0
H        1.81269882      -1.43617684       3.09859994  F        0
H       13.03074803      -0.98698471       2.26762503  F        0
H        5.53537813      -3.08990416       1.09262638  F        0
H        8.48702655      -5.84645393       8.80063176  F        0
H        5.86807409      -3.11655948      13.33116226  F        0
H       14.91456244      -3.38427837       6.30897701  F        0
H       12.17714150      -5.84801228       6.40017283  F        0
H        1.73086688      -2.74256168      10.35624453  F        0
H       13.32025658      -3.33869676      10.31771692  F        0
H        4.05997682      -5.86251935       9.28699688  F        0
Fe       9.85715636       1.57145663       6.59295327  T        1
