135
Lattice="19.123 0.0 0.0 0.0 14.277 0.0 0.0 0.0 7.5465" Properties=species:S:1:pos:R:3:move_mask:L:1:tags:I:1 i=128 E=-2603.9155142701 regions="_JSON [\"Active\"]" n_terminators=32 energy=-906.9002176085148 pbc="F F F"
O        5.97961372       1.11897446       1.40736150  T        0
O        3.34038710       8.52145237       5.92951499  T        0
O        6.04847642      13.15463935       1.45550025  T        0
O       13.22792922      13.14285688       1.36968034  T        0
O        3.37529968       5.81589272       5.90383802  T        0
O       12.92033215      13.06389350       5.79984114  T        0
O        3.45411908       5.80757776       1.69282721  T        0
O        6.13798052      13.13509638       6.00470618  T        0
O        3.40130583       8.49712908       1.71257296  T        0
O        6.01596602       1.12939739       6.10478410  T        0
O        7.41581915       3.28700138       2.37147469  T        0
O       11.60340692       3.53911214       2.20569592  T        0
O        2.06473615      10.91618132       6.09183886  T        0
O        7.32103812      10.89805597       2.40685971  T        0
O       12.34555784      10.81644516       2.56189979  T        0
O        2.02634497       3.46544342       6.08223026  T        0
O       12.04455216      10.57477764       5.39553939  T        0
O        2.20786280       3.45669993       1.34778269  T        0
O        7.34372698      10.88088340       5.06269172  T        0
O       11.94671906       3.01184588       4.80772960  T        0
O        2.12856330      10.82769965       1.35605241  T        0
O        7.28765483       3.29168121       5.02484374  T        0
O        6.51583555       3.08143027      -0.17016439  T        0
O        3.04223927      10.14135615       3.79419066  T        0
O        6.50441571      11.16818724      -0.14196604  T        0
O       12.61191368      10.96725613      -0.03208274  T        0
O        3.07913281       4.18311140       3.78738681  T        0
O        4.82786787       3.53341088       1.86993010  T        0
O       14.73482844      11.15228212       5.45132097  T        0
O        4.74511361      10.82202274       5.72128748  T        0
O        4.74396748      10.80141880       1.84691239  T        0
O       14.85415205      11.01560467       1.52132362  T        0
O        4.72128188       3.48328450       5.76518319  T        0
O        1.80944173       1.14863379      -0.06264121  T        0
O       11.52915360       8.21612889       3.52022184  T        0
O        7.71404086       8.53269061       3.70198171  T        0
O        1.78280095      13.16175821      -0.00958377  T        0
O       11.79511753       5.60018144       3.99896525  T        0
O        7.55177303       5.63241835       3.70547755  T        0
O       -0.01744981       3.14302636      -0.17994840  T        0
O        9.63610352      10.16421066       3.60942131  T        0
O       -0.03351440      11.17669368      -0.26593844  T        0
O        9.61172690       3.98068178       3.82675191  T        0
O       13.53309770       7.49247475       5.05933128  T        0
O        5.49927662       7.22512260       5.07337431  T        0
O        5.72926962       7.20699470       2.24930154  T        0
O       13.58655702       6.65260403       2.43393491  T        0
O        4.97906311       7.21074366      -0.10224553  T        0
Si       6.19902380       2.75978250       1.41367295  T        0
Si       3.31398271      10.07758946       5.41802268  T        0
Si       6.15709371      11.50698072       1.42836193  T        0
Si      13.25406448      11.48097537       1.40994130  T        0
Si       3.31899283       4.24775534       5.41868085  T        0
Si      13.22455249      11.45469128       6.08680239  T        0
Si       3.38328932       4.22376273       2.18713214  T        0
Si       6.19753733      11.48195124       6.08623630  T        0
Si       3.31810817      10.08132171       2.19012875  T        0
Si       6.16510697       2.77962364       6.10103427  T        0
Si       1.57914987       2.79153884      -0.03288262  T        0
Al      11.44432320      10.07310263       3.84080884  T        0
Si       7.98684503      10.16541964       3.73731683  T        0
Si       1.55240539      11.51972542      -0.03520836  T        0
Si      11.24757484       4.05426574       3.73031467  T        0
Si       7.96631276       4.07283537       3.73798015  T        0
Si       4.29464883       7.17610133       6.12515623  T        0
Si       4.29761353       7.16918190       1.46315458  T        0
Si      12.64321990       6.98949372       3.75227204  T        0
Al       6.64532931       7.10539769       3.81381270  T        0
O        6.70846401       3.20809930       7.59605960  T        0
O        6.71053687      11.07439309       7.59657636  T        0
O       13.35718928      11.14940208       7.71748889  T        0
O        4.97548295       7.18176266       7.62713377  T        0
O        3.52289152       8.50898083      -1.95699524  T        0
O        3.58433158       5.82792358      -1.94756474  T        0
O        6.32776714      13.07818395      -2.10837523  T        0
O        6.29500192       1.22770759      -2.20084134  T        0
O        7.57185025       3.40940600      -5.33341291  T        0
O        2.32877693      10.81566817      -1.30126972  T        0
O        7.55260396      10.82008960      -5.36236034  T        0
O        2.32293538       3.53770190      -1.30339699  T        0
O        7.44272618      10.74910980      -2.60439768  T        0
O        7.44899081       3.57509323      -2.62098240  T        0
O        2.76533595      10.30134439      -3.85087777  T        0
O        2.76545232       4.07997783      -3.84660497  T        0
O        4.82809190      10.82507334      -2.19000155  T        0
O        4.83066893       3.48989937      -2.20543011  T        0
O        7.70707640       8.48218716      -3.95608991  T        0
O        7.33512914       5.80116256      -4.14497279  T        0
O        9.67226599      10.39936594      -4.11098610  T        0
O        9.62421019       4.54059312      -3.99228315  T        0
O        5.81792236       7.23353775      -2.55224809  T        0
O        5.59070889       7.64603740      -5.22318741  T        0
Si       3.36951986      10.11250247      -2.33237870  T        0
Si       3.38471638       4.22833700      -2.32501580  T        0
Si       6.25968434      11.47479102      -1.74643425  T        0
Si       6.26078490       2.82019825      -1.77568810  T        0
Si       8.07214198      10.09739448      -3.98218006  T        0
Si       8.00207593       4.29624580      -4.00043907  T        0
Si       4.43443930       7.19032714      -1.70209927  T        0
Si       6.62912226       7.25937338      -3.99364226  T        0
H        5.61083456       0.52083913       2.07985367  F        0
H        5.61112307      13.75835362       2.07975607  F        0
H       13.50958039      13.75682243       2.07498241  F        0
H       13.51084140      13.75504172       5.44776650  F        0
H        5.62495998      13.75277707       5.44935724  F        0
H        5.62509051       0.52255101       5.44942550  F        0
H       12.44565577       3.15588527       1.90033815  F        0
H        1.83343022      11.12554006       7.01950242  F        0
H        1.81954193       3.15353441       6.98813474  F        0
H       12.44354748       3.15657450       5.63339447  F        0
H       12.76174962      11.29928001      -0.93393629  F        0
H       15.19994748      10.29594087       5.45374646  F        0
H       15.20026252      10.29732969       2.08033702  F        0
H        2.56244240       0.51556882       0.00084209  F        0
H        2.56257806      13.76129914       0.00087584  F        0
H       -0.96435880       2.93479999       0.00082830  F        0
H       -0.96427299      11.34215683       0.00103770  F        0
H       14.24618549       7.13643077       5.63048807  F        0
H       14.25080708       7.13791561       1.90510187  F        0
H        6.35949513       2.97597070       8.47938261  F        0
H        6.35946036      11.30224636       8.48133548  F        0
H       12.76333233      11.30075111       8.47967776  F        0
H        4.50898861       7.14016697       8.47499567  F        0
H        5.62495998      13.75277707      -2.09714276  F        0
H        5.62509051       0.52255101      -2.09707450  F        0
H        6.67730558       3.15591219      -5.64675051  F        0
H        6.67686405      11.12256578      -5.64493030  F        0
H        3.19736723      10.11759060      -4.70766930  F        0
H        3.20026696       4.16316078      -4.71757657  F        0
H       10.52611047      10.07370688      -3.78446723  F        0
H       10.52510559       4.20251023      -3.78397245  F        0
H        4.87243006       7.14046961      -5.64294599  F        0
Fe       7.04187014       7.37401093       0.65550309  T        0
Fe       9.61641601       8.12106783       2.61544588  T        1
O        8.78976321       7.58951291       1.02280002  T        2
