139
Lattice="20.102 0.0 0.0 0.0 19.731 0.0 0.0 0.0 13.253" Properties=species:S:1:pos:R:3:move_mask:L:1:tags:I:1 i=77 E=-3472.0240129048 regions="_JSON [\"Active\"]" n_terminators=32 energy=-937.5734446059928 pbc="F F F"
O       11.87556779      16.83743355       4.71592890  T        0
O       11.73143915      12.73869106       4.78250422  T        0
O        8.34981445       9.39133105       7.91982671  T        0
O        3.34928238      10.33073111       6.19916948  T        0
O        3.34172659      19.21369202       6.20739388  T        0
O        6.29389804      18.87293802      10.92739885  T        0
O        6.00593876      10.54184119      10.76075112  T        0
O       16.06626042      10.56301527       9.09846353  T        0
O       16.54128302      18.87011671       8.87867859  T        0
O        4.00804262      12.25812836       7.98042183  T        0
O        4.12688111      17.32144287       7.97460371  T        0
O       14.43868652      17.45653149      12.12550054  T        0
O       13.81817652      12.31609653      12.08926822  T        0
O        5.83706732      10.34733093       7.31385894  T        0
O        5.95012043      18.88467075       6.78292650  T        0
O       16.20440815      19.28688813      13.08259614  T        0
O        3.59220965       9.74901349       8.71239699  T        0
O        4.20685382      19.90696975       8.55654663  T        0
O       14.24367433      19.98110240      11.34685003  T        0
O        7.75361033      12.04812281       7.84216173  T        0
O        7.89963792      17.25152335       7.55004245  T        0
O        7.76756628      10.53573553       5.55972781  T        0
O        8.44510386      19.34089715       5.82380826  T        0
O       11.95870730      10.59117791       9.45812499  T        0
O       11.33785089      19.06499622       9.13208851  T        0
O       16.19184809      17.03049128       4.50641045  T        0
O       16.30010853      12.13554021       4.90036235  T        0
O       10.10738319      16.62742945       9.34750336  T        0
O        9.89967031      12.33396163       9.34801602  T        0
O        7.38524270      16.45927212      10.38634661  T        0
O        7.52491208      12.78510221      10.47758258  T        0
O       17.75338831      12.48864598       9.82708976  T        0
O       18.02742747      16.68904959       9.44601815  T        0
O        8.40522783      14.52320735       8.82911368  T        0
O        6.16393669      16.88092417      12.69787845  T        0
O        6.14643414      12.53712384      12.69099163  T        0
O       16.39080105      12.73034836       7.47621968  T        0
O       16.60612702      16.82636232       7.17722862  T        0
O        4.70867926      16.75548141      10.51199192  T        0
O        4.82976932      12.85850490      10.42945495  T        0
O       15.06296973      12.89543853       9.75788966  T        0
O       15.35424933      16.55698073       9.51867886  T        0
O       15.89484764      14.69065155       5.72085045  T        0
O       14.04302841      12.81453653       6.19660171  T        0
O       14.13846512      16.66586185       6.19375604  T        0
O       12.22308001      14.78793391       6.33074472  T        0
O       11.73520329      12.40776163       7.43249052  T        0
O       11.85822663      17.20424490       7.37209521  T        0
O        2.16306687      16.47120510       9.65801718  T        0
O        2.22827932      13.27854358       9.86355775  T        0
O       12.36213870      13.12028032       9.93328964  T        0
O       12.52054093      16.79159699       9.97630217  T        0
O        4.02271395      14.80731714       8.80362774  T        0
O       13.71006165      14.81462504      11.18647219  T        0
Si       4.23943608      10.68696526       7.52699931  T        0
Si       4.42658348      18.81935315       7.37281433  T        0
Si      14.64752792      18.99084966      12.58071852  T        0
Si       7.44788611      10.56790926       7.16718026  T        0
Si       7.56432947      18.77033821       7.09207916  T        0
Al       8.43272585      16.30664815       8.87880477  T        0
Si       8.41444506      12.92152369       9.03438399  T        0
Si       6.13488938      17.27937253      11.11166292  T        0
Si       6.10960673      12.14571048      11.10614949  T        0
Si      16.34922596      12.18674274       9.02161539  T        0
Si      16.60812451      17.23451947       8.77280986  T        0
Si      15.65167088      13.10764311       6.06081329  T        0
Si      15.71422110      16.31020535       5.91058556  T        0
Si      12.45964000      13.18730256       6.18636833  T        0
Si      12.53944855      16.37718172       6.14796029  T        0
Si      11.47671286      12.08563652       9.00511228  T        0
Si      11.44870162      17.46938049       8.92508596  T        0
Si       3.74659312      16.36581510       9.23876088  T        0
Si       3.74922207      13.25779451       9.25041035  T        0
Si      13.82676914      13.25380718      10.74712201  T        0
Al      14.13506244      16.49006209      10.72319242  T        0
O        9.98186967      21.33927336       9.19633689  T        0
O        7.66127618      21.11375832      10.51452114  T        0
O       17.98337836      21.13640214       9.22773536  T        0
O        7.65157875      22.50316742       8.33254846  T        0
O        7.99035092      19.79627308       8.28252170  T        0
O        6.62276343      20.77599581      12.84446786  T        0
O       16.72265309      20.82836559       6.99305079  T        0
O        4.96039176      21.16597543      10.71772498  T        0
O       15.25535569      21.17677000       9.22855290  T        0
O       11.55416130      20.97528884       7.17819038  T        0
O        2.37606886      21.36871799       9.94714176  T        0
O       12.64402311      21.30676538       9.65914134  T        0
O        4.11150759      22.65254828       8.58711719  T        0
O       14.27819379      22.69931277      11.23481388  T        0
Si       8.35580700      21.19281343       9.03874293  T        0
Si       6.35260795      20.48813568      11.25275233  T        0
Si      16.60438852      20.48231251       8.60351176  T        0
Si      11.41810149      20.66751512       8.79221576  T        0
Si       3.93462216      21.26050522       9.43009347  T        0
Si      14.11290927      21.28984879      10.39888770  T        0
O       13.64171207      19.50078278      13.78360939  T        0
O        5.88007957      12.60769366      15.36106560  T        0
O        5.87851215      16.97753680      15.37051691  T        0
O        5.39598899      14.75696573      13.98711762  T        0
O        3.68255561      16.85775707      13.85375465  T        0
O        3.67497503      12.67437324      13.78372154  T        0
Si       5.25952156      16.38183949      13.97751211  T        0
Si       5.24814329      13.13988458      13.95287552  T        0
H       11.77741499      17.76721957       4.45015374  F        0
H       11.77741500      11.82883679       4.45015372  F        0
H        8.32625906       8.98649408       8.81306681  F        0
H        3.46536401      10.58100877       5.26900439  F        0
H        3.46536401      19.01504758       5.26900440  F        0
H        6.59189033       9.81912404      11.03827922  F        0
H       16.64303307       9.81912404       8.84117322  F        0
H       14.40563885      11.55048737      12.19637067  F        0
H       16.97340650      18.78964577      12.75613404  F        0
H        4.11249823       9.08086468       9.18193973  F        0
H        8.50665683      10.58475679       4.91774357  F        0
H        8.50665683      19.01129957       4.91774358  F        0
H       11.52310774       9.76092419       9.21110646  F        0
H       15.87290964      17.87210703       4.12309272  F        0
H       15.87290964      11.72394929       4.12309273  F        0
H       18.05303808      13.25020103      10.35989921  F        0
H       18.05303809      16.34585533      10.35989921  F        0
H        1.73086688      16.98843832      10.35624453  F        0
H        1.73086689      12.60761804      10.35624453  F        0
H       18.28958667      21.16688107      10.15436837  F        0
H        7.84356087      22.87259074       7.45668424  F        0
H        6.01931354      20.68412461      13.59787507  F        0
H       16.07044730      20.68412712       6.28158542  F        0
H       12.20788616      20.61981982       6.55602502  F        0
H        1.92726146      20.79864952      10.59110356  F        0
H        4.51576461      22.82060840       7.71911054  F        0
H       14.56690736      22.82060840      12.16034191  F        0
H       13.51650675      19.01504758      14.61047976  F        0
H        5.82176689      11.72394931      15.75639142  F        0
H        5.82176689      17.87210706      15.75639142  F        0
H        2.98936131      16.34896307      13.39901228  F        0
H        2.98936131      13.24709329      13.39901228  F        0
Fe      11.45580076      15.19900250      10.76441648  T        0
Fe       8.28196434      14.78845799      11.24629197  T        1
O       10.11350770      14.02287027      11.71631339  T        2
O        9.88809842      15.40326194      12.26976615  T        3
