148
Lattice="24.397 0.0 0.0 0.0 24.397 0.0 0.0 0.0 24.397" Properties=species:S:1:pos:R:3:move_mask:L:1:tags:I:1 i=41 E=-6943.8331748197 regions="_JSON [\"Active\"]" n_terminators=24 energy=-1048.871971271448 pbc="F F F"
O        9.36189562      14.65177280      -0.23507839  T        0
O       12.25696972       9.48036292       2.68087040  T        0
O       14.83386022      21.08423704       6.11243584  T        0
O       12.23698688      15.69362485       8.88527360  T        0
O        9.40243603      18.38699418       3.43319936  T        0
O       15.65040803       9.44365032       6.14562444  T        0
O       18.36518514      14.86789594       8.88403656  T        0
O       21.04596958      12.17655012       3.46232837  T        0
O       20.88964738      15.73816570      -0.02421656  T        0
O       18.31302395      20.91402259       2.54626910  T        0
O       14.65533160       9.36309399      -0.23783688  T        0
O        9.48247379      12.25679435       2.67688573  T        0
O       21.08488701      14.83470094       6.11325565  T        0
O       15.69245187      12.23515485       8.88439062  T        0
O       18.40200364       9.40880568       3.42605037  T        0
O        9.44200146      15.65414672       6.13853304  T        0
O       14.86672338      18.36308729       8.88345387  T        0
O       12.17473828      21.04621396       3.46126013  T        0
O       15.73479797      20.88878710      -0.02622247  T        0
O       20.91135617      18.31613632       2.54716360  T        0
O       11.30123165      14.10884468       1.95938106  T        0
O       14.10729438      11.30039439       1.95828363  T        0
O       19.13184336      16.44733215       1.86145332  T        0
O       16.44492868      19.13344233       1.86159475  T        0
O       10.22441975      10.22167450       1.12421115  T        0
O       11.20395286      16.49499218       4.25321244  T        0
O       13.98380605      19.22998807       4.34334968  T        0
O       14.06697085      16.52777092       7.07617529  T        0
O       19.23028835      13.98476956       4.34480021  T        0
O       16.50151875      11.19464697       4.25666479  T        0
O       16.52984248      14.06646899       7.07854108  T        0
O       20.30192406      20.30473415       0.83157426  T        0
O       12.04956795      12.04918414       3.45480442  T        0
O       18.40975666      18.41186224       3.48723847  T        0
O       12.07707477       8.73778423       0.12449733  T        0
O        8.74027749      12.07157550       0.12009965  T        0
O       12.08036013      15.02538076       6.27009070  T        0
O       12.04899051      18.43312378       2.74361499  T        0
O       15.62130111      18.49583301       6.28800926  T        0
O       18.49639485      15.62296808       6.28895020  T        0
O       18.43178632      12.05369712       2.74265406  T        0
O       15.02854089      12.08262449       6.26704301  T        0
O       18.26489798      21.78569714       0.01747886  T        0
O       21.78404891      18.26904324       0.01824424  T        0
O       10.30385527      16.70267859       1.71744226  T        0
O       13.92422595      10.47315876       4.48636632  T        0
O       20.04023368      13.93501486       1.77567354  T        0
O       16.53274977      20.08512938       4.36060424  T        0
O       16.70449498      10.30482241       1.71694724  T        0
O       10.47195164      13.92176516       4.48657487  T        0
O       13.93147956      20.03811293       1.77377751  T        0
O       20.08402313      16.53408738       4.36044816  T        0
O       19.98702200      22.80603497       1.82650901  T        0
O        7.68050884      10.43209402       1.98641135  T        0
O       16.62072798      16.62086697       7.90463819  T        0
O       13.96021772      13.95938055       7.84809558  T        0
O       22.80166348      19.99067996       1.83061759  T        0
O       10.43345040       7.67740384       1.98659749  T        0
Al      10.57082916      15.29180658       0.78043225  T        0
Si      13.06800037      10.81435742       3.14967349  T        0
Si      19.62094341      15.23650837       0.88140722  T        0
Si      17.42763692      19.64089310       3.06850033  T        0
Al      15.29375874      10.57193818       0.78001286  T        0
Si      10.81520945      13.06783521       3.14873740  T        0
Si      15.23426693      19.62048030       0.88048718  T        0
Si      19.63885960      17.42956996       3.06890427  T        0
Si       9.01450591      11.24026351       1.47631317  T        0
Si      10.80855174      15.29604522       5.29716996  T        0
Si      13.03106415      19.68729841       3.09315529  T        0
Si      15.29246942      17.50550629       7.53870535  T        0
Si      19.71772807      15.23768392       5.28393942  T        0
Si      17.51040773      10.73022519       3.03290700  T        0
Si      15.30505110      13.08341109       7.52239040  T        0
Si      21.44669673      19.22939061       1.29825410  T        0
Si      11.24243292       9.01185346       1.47851091  T        0
Si      15.29839545      10.80775566       5.29783045  T        0
Si      19.68737107      13.03305471       3.09367538  T        0
Si      17.50655645      15.29307055       7.53974051  T        0
Si      15.23648089      19.71730014       5.28321415  T        0
Si      10.72929756      17.50634579       3.03468485  T        0
Si      13.08384809      15.30398630       7.52297173  T        0
Si      19.22616786      21.44952973       1.29710262  T        0
O       14.73415434      12.03308466      -2.49712561  T        0
O       15.74317777      18.31621749      -2.62071146  T        0
O       12.03025899      14.73554447      -2.49590383  T        0
O       18.31681399      15.74279387      -2.61997408  T        0
O       14.06651389      14.06863670      -0.89338940  T        0
O       16.38485683      16.38509056      -0.88207063  T        0
O       12.87143815      10.10272170      -2.04941772  T        0
O       10.09797483      12.87359141      -2.05390947  T        0
O       17.46477341      20.28769349      -2.00144121  T        0
O       20.28879662      17.46478293      -2.00168020  T        0
O       12.20218700      15.59835861       0.04127919  T        0
O       15.59393098      12.20402799       0.04057103  T        0
O       18.37344760      14.82599696      -0.09391967  T        0
O       14.82485699      18.37239838      -0.09433623  T        0
O       12.25273941      12.25413102      -3.45982812  T        0
O       18.26994671      18.26885972      -3.50579005  T        0
O       16.57117933      13.88924927      -1.80968191  T        0
O       14.03993347      10.48029839      -4.46137567  T        0
O       22.77937927      16.44365061      -1.71148014  T        0
O       16.45358049      19.99669711      -4.50324920  T        0
O        7.44770921      13.32036670      -1.65083505  T        0
O       13.88824933      16.57197338      -1.81048409  T        0
O       10.48140081      14.04057633      -4.46444595  T        0
O       16.43912705      22.77696123      -1.71468520  T        0
O       19.99817667      16.45124622      -4.50215372  T        0
O       13.31586898       7.45075138      -1.65322076  T        0
Si      15.26377953      13.03790870      -1.33825746  T        0
Si      15.21806896      17.42579624      -1.35948253  T        0
Si      13.03552533      15.26597218      -1.33744963  T        0
Si      17.42606508      15.21838857      -1.35868881  T        0
Si      13.27032117       8.93379425      -0.95464108  T        0
Si      11.19955221      13.45218249      -3.10967329  T        0
Si      16.98532798      21.43729552      -0.93535813  T        0
Si      19.23050019      16.99456643      -3.15664939  T        0
Si       8.93193492      13.26899658      -0.95520442  T        0
Si      13.45056350      11.20108527      -3.10840115  T        0
Si      21.43798202      16.98828418      -0.93397677  T        0
Si      16.99559776      19.22946516      -3.15701623  T        0
H       14.01033133      21.15748981       6.62630180  F        0
H       11.67124922      16.48560174       8.95913012  F        0
H        9.33839640      18.82463975       4.28720704  F        0
H       16.48559112       9.33840607       6.62628668  F        0
H       18.82464116      14.01032609       8.95915608  F        0
H       21.15750258      11.67126816       4.28721909  F        0
H       21.15748967      14.01033142       6.62630180  F        0
H       16.48560162      11.67124930       8.95913012  F        0
H       18.82463962       9.33839646       4.28720704  F        0
H        9.33840600      16.48559124       6.62628668  F        0
H       14.01032599      18.82464129       8.95915608  F        0
H       11.67126808      21.15750273       4.28721909  F        0
H       20.83112530      23.15241223       1.48839475  F        0
H        7.34352333       9.66479174       1.48837704  F        0
H       23.15241204      20.83112542       1.48839475  F        0
H        9.66479163       7.34352337       1.48837704  F        0
H       13.68673308       9.66480596      -4.85513656  F        0
H       23.15240156      16.80916493      -2.53384338  F        0
H       16.80913871      20.83112323      -4.85512183  F        0
H        7.34352146      13.68671965      -2.53387758  F        0
H        9.66480591      13.68673318      -4.85513656  F        0
H       16.80916481      23.15240172      -2.53384338  F        0
H       20.83112308      16.80913882      -4.85512183  F        0
H       13.68671953       7.34352150      -2.53387758  F        0
Fe      15.12196850      13.12067730       1.83442714  T        0
Fe      13.11516861      15.14009514       1.84203079  T        0
O       15.13180808      15.13551226       2.05440339  T        0
O       14.44008753      14.44540423       3.19768856  T        0
