148
Lattice="24.397 0.0 0.0 0.0 24.397 0.0 0.0 0.0 24.397" Properties=species:S:1:pos:R:3:move_mask:L:1:tags:I:1 i=41 E=-6943.8331748197 regions="_JSON [\"Active\"]" n_terminators=24 energy=-1049.5655364538272 pbc="F F F"
O        9.58336555      14.69079392      -0.25290228  T        0
O       12.24035534       9.49719105       2.58768865  T        0
O       14.84824462      20.95707852       6.09587854  T        0
O       12.32836871      15.86821738       8.72699955  T        0
O        9.79870379      18.47813640       3.67629717  T        0
O       15.62295522       9.45489803       6.20058853  T        0
O       18.34153917      14.84711992       8.84810378  T        0
O       21.07921490      12.20838111       3.47745419  T        0
O       21.08521407      15.66938307       0.00280011  T        0
O       18.26385962      21.06883903       2.60182056  T        0
O       14.78839106       9.56619708      -0.00292689  T        0
O        9.60376855      12.08752429       2.68299269  T        0
O       21.06541430      14.85476400       6.14682483  T        0
O       15.69139501      12.22771797       8.86025948  T        0
O       18.35179609       9.43939422       3.44401554  T        0
O        9.57757960      15.78863336       6.09179720  T        0
O       14.70324501      18.19884809       8.74312838  T        0
O       12.11082322      20.93983196       3.61851338  T        0
O       15.74782302      20.52778194      -0.52359138  T        0
O       21.09226901      18.30475051       2.63331378  T        0
O       11.40347232      13.89250884       1.83619524  T        0
O       14.04762355      11.32517669       1.87395935  T        0
O       13.11226334      20.20832536       8.00323666  T        0
O       10.26645611      17.45942009       8.07308975  T        0
O       10.17594151      20.47346584       5.43388352  T        0
O       19.25095520      16.50202962       1.80329031  T        0
O       16.65561433      19.15992154       1.63079669  T        0
O       10.25246387      10.15017255       0.91160928  T        0
O       11.48067464      16.52302098       4.38131996  T        0
O       14.02294719      19.00966274       4.44677059  T        0
O       14.05641241      16.52266805       6.72294746  T        0
O       19.25551877      14.01480667       4.31925700  T        0
O       16.57050235      11.23320946       4.38406867  T        0
O       16.61349834      13.93111328       6.97386930  T        0
O       12.10786305      12.00409842       3.57608324  T        0
O       12.31615061      21.86864756       6.12812976  T        0
O       12.19338483      18.35278440       9.65095603  T        0
O        8.74166861      18.34016999       6.12121018  T        0
O       18.50362480      18.46679399       3.38921748  T        0
O       12.26461559       8.67298741       0.03904326  T        0
O        8.76651257      12.14853164       0.13393715  T        0
O       12.10242489      14.85189809       6.25470527  T        0
O       12.26646657      18.17626488       2.55899498  T        0
O       15.79646477      18.44845417       6.27862509  T        0
O       18.48104340      15.64628567       6.24955200  T        0
O       18.47149694      12.05516415       2.74447807  T        0
O       14.90019516      12.05785617       6.25726768  T        0
O       10.31901210      16.51368515       1.90738859  T        0
O       14.01294513      10.38064735       4.37510098  T        0
O       14.17312953      22.70360125       7.91962192  T        0
O       10.49591459      16.46020461      10.57450163  T        0
O        7.77516948      20.03358617       4.25938689  T        0
O       10.59431808      22.95608167       4.42627838  T        0
O       20.07772592      13.94990986       1.76055642  T        0
O       16.50824977      20.00240690       4.21856084  T        0
O       16.56867705      10.44601131       1.80081641  T        0
O       10.48356188      13.96871233       4.34840420  T        0
O        7.74157072      16.47110690       7.81192093  T        0
O       14.09324727      20.04689982      10.53922591  T        0
O       14.14992980      20.05031634       1.67423094  T        0
O       20.10327530      16.56480297       4.35760659  T        0
O        7.76828400      10.40097076       1.95765764  T        0
O       16.51429240      16.44804521       7.86775203  T        0
O       14.08913032      14.05350555       7.84381777  T        0
O       10.54331780       7.61476831       1.81036058  T        0
Al      10.80062155      15.19190414       0.85739044  T        0
Si      13.08923794      10.80166545       3.09553723  T        0
Si      13.59014726      21.44992754       7.03873442  T        0
Si      11.29905046      17.04204835       9.26701145  T        0
Si       9.12644506      19.34907272       4.89023636  T        0
Si      19.72974160      15.26083902       0.84873372  T        0
Si      17.48937842      19.65589531       2.95455088  T        0
Si      15.26699296      10.84618442       0.89868678  T        0
Si      10.91150282      12.99864548       3.07057209  T        0
Si       9.07146100      17.03385628       7.03814271  T        0
Si      13.51383835      19.22810261       9.24398113  T        0
Si      11.30519015      21.54475494       4.87492630  T        0
Si      15.34243951      19.54041308       0.73141320  T        0
Si      19.73885048      17.45693319       3.03792738  T        0
Si       9.09436712      11.20004050       1.40694982  T        0
Si      10.86189951      15.23484803       5.26081394  T        0
Al      13.11864480      19.69037654       3.02188032  T        0
Si      15.30175067      17.42908772       7.44340236  T        0
Si      19.73174832      15.25804977       5.26652900  T        0
Si      17.49175525      10.80176059       3.09706831  T        0
Si      15.33437504      13.04069708       7.47390244  T        0
Si      11.31392774       8.98646937       1.33360285  T        0
Si      15.28627972      10.78743509       5.29583842  T        0
Si      19.71765429      13.04868378       3.07866591  T        0
Si      17.51178408      15.20356548       7.47465730  T        0
Si      15.31469672      19.64092116       5.25821904  T        0
Si      10.87793108      17.43138329       3.07386283  T        0
Si      13.12746218      15.28945060       7.43236699  T        0
O       14.77510987      12.17025903      -2.61395126  T        0
O       15.64170049      18.35421839      -2.72964229  T        0
O       12.04009448      14.67995256      -2.45308973  T        0
O       18.37545268      15.62516208      -2.77489230  T        0
O       14.10910013      14.06154119      -0.85370070  T        0
O       16.54806754      16.47425923      -0.99972499  T        0
O       13.06080201      10.19518541      -1.97279267  T        0
O       10.05491748      12.85059776      -2.10236291  T        0
O       12.31081022      15.82498035      -0.00753267  T        0
O       15.67704847      12.08023397      -0.08597298  T        0
O       18.49543647      14.90817595      -0.15809536  T        0
O       14.79017173      18.16092678      -0.06510275  T        0
O       12.24052739      12.21998842      -3.46535481  T        0
O       16.61936959      13.91132426      -1.77080572  T        0
O       14.04542714      10.49115233      -4.48731749  T        0
O        7.49658535      13.59838286      -1.58383888  T        0
O       13.99380638      16.48231983      -1.92627164  T        0
O       10.50390890      14.01810975      -4.48592980  T        0
O       14.07619952       7.70160228      -1.71656505  T        0
Si      15.30077498      13.04287593      -1.33746066  T        0
Si      15.28217623      17.37747113      -1.47089615  T        0
Si      13.08953977      15.23270065      -1.34931868  T        0
Si      17.52525007      15.22189952      -1.42118104  T        0
Si      13.53547143       9.03323043      -0.91688365  T        0
Si      11.19391768      13.42424444      -3.11469292  T        0
Si       8.99203528      13.35788595      -0.93848746  T        0
Si      13.51491384      11.25518861      -3.13298321  T        0
H       16.48559112       9.33840607       6.62628668  F        0
H       18.82464116      14.01032609       8.95915608  F        0
H       21.15750258      11.67126816       4.28721909  F        0
H       21.15749781      16.48550533      -0.52720743  F        0
H       18.82463422      21.15752504       1.81198193  F        0
H       21.15748967      14.01033142       6.62630180  F        0
H       16.48560162      11.67124930       8.95913012  F        0
H       18.82463962       9.33839646       4.28720704  F        0
H       16.48550522      21.15749796      -0.52720744  F        0
H       21.15752488      18.82463433       1.81198193  F        0
H       13.68673605      23.15239550       8.63276462  F        0
H        9.66477675      16.80915558      10.95402362  F        0
H        7.34351903      20.83116256       4.61081863  F        0
H        9.66481601      23.15243056       4.61081458  F        0
H        7.34350493      16.80917637       8.63275504  F        0
H       13.68672539      20.83112809      10.95404502  F        0
H        7.34352333       9.66479174       1.48837704  F        0
H        9.66479163       7.34352337       1.48837704  F        0
H       16.48557283      18.82464187      -2.86023677  F        0
H       18.82464171      16.48557294      -2.86023676  F        0
H       13.68673308       9.66480596      -4.85513656  F        0
H        7.34352146      13.68671965      -2.53387758  F        0
H        9.66480591      13.68673318      -4.85513656  F        0
H       13.68671953       7.34352150      -2.53387758  F        0
Fe      13.51044260      16.81915668       1.32967265  T        0
Fe      13.67144199      16.93769728       4.47599521  T        1
O       14.92753912      16.70133869       2.76120599  T        2
O       13.96480163      15.60054816       3.00532961  T        3
