142
Lattice="19.123 0.0 0.0 0.0 14.277 0.0 0.0 0.0 7.5465" Properties=species:S:1:pos:R:3:move_mask:L:1:tags:I:1 i=128 E=-2603.9155142701 regions="_JSON [\"Active\"]" n_terminators=36 energy=-938.0093527712643 pbc="F F F"
O       15.39477614       8.48592283       5.78333717  T        0
O       13.16698938       1.17114152       1.43034184  T        0
O       15.60177703       5.89880487       5.57630802  T        0
O       12.96963513      13.17111190       1.50628903  T        0
O       12.69341913      13.28803595       5.72431654  T        0
O       15.68282533       5.94019933       1.93243494  T        0
O       12.77558092       1.06667344       5.79970239  T        0
O       15.50256976       8.53525360       1.72524629  T        0
O       17.11025742      10.63774633       6.19952838  T        0
O       11.84668211       3.37255566       2.49588541  T        0
O       16.91926559       3.44792339       6.45568277  T        0
O       11.86783602      10.83299937       2.49181672  T        0
O       11.65430247      10.83478431       5.14346678  T        0
O       16.92369077       3.70593503       1.08816832  T        0
O       11.57621606       3.42365404       5.13875865  T        0
O       16.98015332      10.65786208       1.16509047  T        0
O       16.21403520      10.19999944       3.71758431  T        0
O       12.51407693       3.29128856      -0.04304337  T        0
O       16.31310631       4.23381824       3.68809555  T        0
O       12.51624649      11.00377303      -0.03448626  T        0
O       14.25259309      11.18814834       5.81813086  T        0
O       14.39517714       3.53350999       1.88616062  T        0
O       14.19803940       3.32465507       5.57108511  T        0
O       14.43860488      10.98696663       1.90185979  T        0
O       11.48135029       8.49462447       3.78408888  T        0
O       17.28013861       1.17424463       0.11458632  T        0
O       11.43530930       5.75068199       3.72649818  T        0
O       17.31180456      13.14518025       0.09851127  T        0
O        9.50529755      10.36733071       3.52712895  T        0
O        9.47529904       3.88546253       3.46465299  T        0
O       13.23147751       7.04508542       5.17260887  T        0
O       13.35036549       7.11397333       2.46630257  T        0
O       14.15458950       6.97994140      -0.07507125  T        0
Al      15.53901692      10.17734951       5.40430170  T        0
Si      12.97358784       2.81393443       1.46404524  T        0
Al      15.71972208       4.08763960       5.40927026  T        0
Si      12.94456389      11.51705009       1.47297209  T        0
Si      12.72948444      11.65947850       6.08643172  T        0
Si      15.80945454       4.26945930       2.12525492  T        0
Si      12.77646530       2.72146839       6.03759472  T        0
Si      15.78142325      10.10678681       2.12156427  T        0
Si      11.11021421      10.11284437       3.76345635  T        0
Si      17.53578444       2.78464915      -0.14467884  T        0
Si      11.07731431       4.12965102       3.74294697  T        0
Si      17.51179446      11.52799458      -0.14188334  T        0
Si      14.58831779       7.11540658       6.08250380  T        0
Si      14.64370201       7.17130498       1.48324197  T        0
Si      12.35483839       7.10412744       3.79105671  T        0
O       21.68490681       3.17535592       8.95397824  T        0
O       21.60469681      11.08846007       8.99556615  T        0
O       20.98636798       1.15149571       7.32875914  T        0
O       20.96290265      13.13287607       7.38103956  T        0
O       19.22746476       2.99927134       7.71340599  T        0
O       19.23407851      11.23275726       7.60683623  T        0
O       24.15861127       7.17529496       7.64609849  T        0
Si      20.85087434       2.77284873       7.57266807  T        0
Si      20.86691160      11.50266345       7.57243314  T        0
O       22.84194563       8.48830084       5.68236872  T        0
O       22.88573904       5.77284657       5.71138369  T        0
O       22.63860737       5.97540269       1.77715489  T        0
O       22.92422613       8.63276431       1.68008522  T        0
O       21.54504277      10.70531655       6.28714342  T        0
O       21.51032376       3.58710105       6.27267413  T        0
O       21.53002469       3.60978933       1.12606143  T        0
O       21.31764900      10.70545074       1.17792315  T        0
O       22.13796133      10.18141127       3.68931656  T        0
O       22.20155658       4.13772149       3.66906359  T        0
O       24.19487051       3.94878378       1.73652569  T        0
O       24.08689116      10.89058054       5.18500121  T        0
O       23.79576902      11.23814975       1.76875881  T        0
O       24.05165350       3.32565533       5.20008771  T        0
O       20.95014489       1.14755731       0.10838827  T        0
O       27.03234699       8.40767494       3.68320712  T        0
O       20.91095590      13.16732323       0.03236213  T        0
O       27.03530432       5.87335518       3.74696364  T        0
O       19.16829612       3.01913411      -0.13354930  T        0
O       19.13086221      11.27558251      -0.25553904  T        0
O       25.08539953       7.16624981       5.13710717  T        0
O       24.98060251       7.12919061       2.44041569  T        0
O       24.19987741       7.11687500      -0.12867579  T        0
Si      22.65630157      10.06427443       5.24599209  T        0
Si      22.64888839       4.20524410       5.25589076  T        0
Si      22.63500210       4.35856945       2.09171254  T        0
Si      22.57291381      10.17526012       2.09064312  T        0
Si      20.80778605       2.77661483      -0.10810588  T        0
Si      20.75996142      11.53553216      -0.13903874  T        0
Si      23.72032467       7.14448871       6.04171828  T        0
Si      23.68090696       7.20149031       1.44574454  T        0
Si      25.98255451       7.13761103       3.74874346  T        0
O       21.53087171      11.08036417      -1.53343756  T        0
O       21.46760942       3.20795562      -1.56548345  T        0
O       17.06800918       3.50607597       9.17419973  T        0
O       17.01679885      10.70984585       8.97026002  T        0
O       12.34420603       3.07568009       7.59887007  T        0
O       12.24826430      11.36517184       7.64721012  T        0
O       17.28162958       1.12134661       7.83863495  T        0
O       17.24028212      13.04577455       7.49667434  T        0
O       14.13146206       6.91751822       7.65573630  T        0
Si      17.57820967       2.76297787       7.76318118  T        0
Si      17.59439818      11.43512515       7.59557344  T        0
O       16.68018621      11.09501787      -1.51380101  T        0
O       16.84974360       3.25971431      -1.58223616  T        0
H       13.50938118       0.51971906       2.07492992  F        0
H       13.50958039      13.75682243       2.07498241  F        0
H       13.51084140      13.75504172       5.44776650  F        0
H       13.50975252       0.52161770       5.44778410  F        0
H       12.76076393       2.97683097      -0.93375646  F        0
H       12.76174962      11.29928001      -0.93393629  F        0
H       16.56036088       0.51548555      -0.00076213  F        0
H       16.56020813      13.76127004      -0.00066979  F        0
H        8.59739021      10.07362933       3.76217937  F        0
H        8.59637561       4.20354031       3.76204115  F        0
H       14.60982961       7.13673871      -0.92783774  F        0
H       22.00636260       3.98381786       9.40800429  F        0
H       22.00483182      10.29715766       9.41435165  F        0
H       21.68544240       0.51556882       7.54734209  F        0
H       21.68557806      13.76129914       7.54737584  F        0
H       23.63198861       7.14016697       8.47499567  F        0
H       24.75935035       3.15857028       1.68481677  F        0
H       24.76092223      11.11473374       5.84604825  F        0
H       24.75845825      11.12041654       1.68709931  F        0
H       24.75385446       3.15950316       5.84781029  F        0
H       21.68544240       0.51556882       0.00084209  F        0
H       26.93014812       9.37398274       3.76239518  F        0
H       21.68557806      13.76129914       0.00087584  F        0
H       26.92977964       4.90364681       3.76170371  F        0
H       23.63475007       7.13509558      -0.92932085  F        0
H       22.00608000      10.28902905      -1.85963567  F        0
H       21.98145514       3.97853683      -1.88343379  F        0
H       16.24121950       3.98053732       9.41400179  F        0
H       16.24088130      10.29526047       9.41338238  F        0
H       12.76321398       2.97604733       8.47995589  F        0
H       12.76333233      11.30075111       8.47967776  F        0
H       16.56036088       0.51548555       7.54573787  F        0
H       16.56020813      13.76127004       7.54583021  F        0
H       14.61405599       7.13800201       8.47661577  F        0
H       16.24044124      10.28985035      -1.86101282  F        0
H       16.23925818       3.97887666      -1.85852020  F        0
Fe      17.95585997       9.36695576       4.72858121  T        0
Fe      16.83389983       6.36758631       3.97751669  T        1
O       18.52032904       7.47060717       4.81012665  T        2
O       18.11539394       7.78664603       3.39065274  T        3
