141
Lattice="19.123 0.0 0.0 0.0 14.277 0.0 0.0 0.0 7.5465" Properties=species:S:1:pos:R:3:move_mask:L:1:tags:I:1 i=128 E=-2603.9155142701 regions="_JSON [\"Active\"]" n_terminators=32 energy=-955.333660970312 pbc="F F F"
O        6.14530272       1.11391818       1.51754756  T        0
O       15.61420771       8.47448823       5.85810485  T        0
O       13.03214827       1.13098844       1.48219043  T        0
O        3.38602764       8.41879829       5.85049626  T        0
O        6.26980112      13.03695305       2.08756416  T        0
O       15.63450994       5.78761260       5.86899546  T        0
O       12.98483778      13.13655001       1.53211642  T        0
O        3.31273036       5.72070621       5.85241457  T        0
O       12.90071530      13.11440690       5.86431904  T        0
O        3.66236847       5.81488541       1.97473769  T        0
O        5.94633390      13.14980590       6.14379009  T        0
O       15.70340118       5.79358336       1.68007448  T        0
O       12.91245862       1.15306947       5.89461949  T        0
O        3.44882322       8.49065337       1.76949487  T        0
O        6.16690214       1.15228500       5.96395448  T        0
O       15.68645371       8.48756570       1.67104348  T        0
O        7.19847843       3.45672837       2.46280379  T        0
O       17.13243800      10.70920616       6.14256164  T        0
O       11.88948297       3.41448666       2.46532612  T        0
O        1.95285840      10.70417834       6.14563980  T        0
O        7.26799102      10.56613782       2.30145530  T        0
O       17.13777336       3.54125542       6.13728743  T        0
O       11.84477717      10.82929221       2.45719944  T        0
O        1.96280191       3.38049549       6.05050771  T        0
O       11.88522154      10.71506578       5.09151680  T        0
O        2.03066313       3.83001589       1.21750942  T        0
O        7.15569699      11.00113291       4.98422911  T        0
O       17.14080098       3.50267874       1.44314783  T        0
O       11.88903492       3.54516062       5.09490356  T        0
O        2.07661133      10.78147405       1.36418486  T        0
O        7.22767066       3.51320956       5.09077579  T        0
O       17.11519859      10.78755575       1.44434699  T        0
O        6.65722762       3.24458085      -0.04653629  T        0
O       16.06347694      10.11433863       3.78333351  T        0
O       12.44957886       3.23482846      -0.04831550  T        0
O        2.99719254      10.13669925       3.81467906  T        0
O        6.44333028      11.33892301      -0.07143749  T        0
O       16.07259195       4.15483281       3.78333458  T        0
O       12.44100168      11.05073656      -0.04780301  T        0
O        2.99673103       4.01941181       3.75427272  T        0
O        4.61518630       3.30369427       1.74869072  T        0
O       14.47408871      10.91885797       5.78331389  T        0
O       14.47278108       3.39692345       1.78396407  T        0
O        4.63739902      10.79766969       5.80509897  T        0
O        4.66295651      10.86936815       1.86000268  T        0
O       14.47898071       3.35027288       5.77889999  T        0
O       14.44372213      10.87635367       1.80508442  T        0
O        4.64540617       3.38048444       5.75851078  T        0
O       11.23710329       8.46666454       3.68509016  T        0
O        7.68890681       8.55874328       3.87728697  T        0
O        1.81690528      13.11908813      -0.03127232  T        0
O       11.23086957       5.77255311       3.66099801  T        0
O        7.86085572       5.77499761       3.69446094  T        0
O        9.53443768      10.50236819       3.79649917  T        0
O       -0.03888852      11.18935485      -0.30579314  T        0
O        9.55196749       3.74478250       3.74776232  T        0
O       13.37471878       7.10477602       5.21688121  T        0
O        5.50429524       6.97534357       5.05867753  T        0
O        5.84842523       7.39569465       2.20195677  T        0
O       13.48178260       7.12533284       2.39468515  T        0
O       14.12665946       7.12321587      -0.09156563  T        0
O        4.64005205       7.07111457      -0.14135639  T        0
Si       6.13271669       2.76562661       1.43716068  T        0
Si      15.81108006      10.03881796       5.40638767  T        0
Si      12.99871362       2.78720182       1.43615178  T        0
Si       3.25701089       9.99746135       5.43333280  T        0
Si       6.11471219      11.50200504       1.52014361  T        0
Si      15.82086962       4.22572015       5.40645105  T        0
Si      12.96681665      11.48031009       1.45102271  T        0
Si       3.25067946       4.15030938       5.37287228  T        0
Si      12.96293522      11.46969719       6.07564570  T        0
Si       3.32446257       4.21695779       2.16460430  T        0
Si       6.07147399      11.50589306       6.12349289  T        0
Si      15.83801568       4.23064660       2.15719561  T        0
Si      12.97053363       2.80053917       6.08303178  T        0
Si       3.27192967      10.05844884       2.21176662  T        0
Si       6.13946340       2.80363500       6.09169428  T        0
Si      15.81815459      10.04845737       2.15802387  T        0
Si      11.15364134      10.11492709       3.75581941  T        0
Si       7.94370544      10.17490988       3.83230815  T        0
Si       1.55768187      11.47744542      -0.04970013  T        0
Si      11.15834012       4.10879752       3.74813236  T        0
Si       7.95323202       4.11628184       3.75827678  T        0
Si      14.69166255       7.12537480       6.12902435  T        0
Si       4.27359310       7.04300329       6.09472104  T        0
Si       4.37746416       7.17786650       1.45991771  T        0
Si      14.75934202       7.13399662       1.43194336  T        0
Al      12.46249405       7.13321848       3.77212323  T        0
Al       6.65858366       7.09239572       3.81897931  T        0
O        6.66800465       3.22862534       7.58985970  T        0
O       12.43025058       3.18983957       7.58852006  T        0
O        6.66631398      11.05013937       7.58739634  T        0
O       12.42433697      11.09530782       7.58741386  T        0
O       14.09194401       7.12720997       7.66552343  T        0
O        4.93422042       7.03839250       7.60674902  T        0
O        3.59350947       8.46370544      -2.16723499  T        0
O        3.37814282       5.85646551      -2.25923161  T        0
O        6.32941488      13.07663963      -2.13779309  T        0
O        2.36907459      10.73409831      -1.27777655  T        0
O        7.56930730      10.70367550      -2.36729363  T        0
O        2.81993632      10.41898421      -3.85894114  T        0
O        4.87111379      10.79112240      -2.16179754  T        0
O        5.90537350       6.99863633      -2.33955289  T        0
Si       3.40582433      10.08308527      -2.35813856  T        0
Si       6.27119328      11.48038267      -1.71819492  T        0
Si       4.36543581       7.07834295      -1.75220707  T        0
H        5.61083456       0.52083913       2.07985367  F        0
H       13.50938118       0.51971906       2.07492992  F        0
H        5.61112307      13.75835362       2.07975607  F        0
H       13.50958039      13.75682243       2.07498241  F        0
H       13.51084140      13.75504172       5.44776650  F        0
H        5.62495998      13.75277707       5.44935724  F        0
H       13.50975252       0.52161770       5.44778410  F        0
H        5.62509051       0.52255101       5.44942550  F        0
H       17.28974254      11.12548174       7.01862795  F        0
H        1.83343022      11.12554006       7.01950242  F        0
H       17.28979000       3.14560285       7.02339196  F        0
H        1.81954193       3.15353441       6.98813474  F        0
H        1.83183800       3.14857954       0.53722786  F        0
H       17.29134854       3.14797220       0.53999843  F        0
H       17.29120144      11.12876736       0.54010345  F        0
H        6.35952436       2.97904956      -0.93427223  F        0
H       12.76076393       2.97683097      -0.93375646  F        0
H       12.76174962      11.29928001      -0.93393629  F        0
H        2.56257806      13.76129914       0.00087584  F        0
H       -0.96427299      11.34215683       0.00103770  F        0
H       14.60982961       7.13673871      -0.92783774  F        0
H        6.35949513       2.97597070       8.47938261  F        0
H       12.76321398       2.97604733       8.47995589  F        0
H        6.35946036      11.30224636       8.48133548  F        0
H       12.76333233      11.30075111       8.47967776  F        0
H       14.61405599       7.13800201       8.47661577  F        0
H        4.50898861       7.14016697       8.47499567  F        0
H        3.36064390       4.89097090      -2.09366187  F        0
H        5.62495998      13.75277707      -2.09714276  F        0
H        7.72914317      10.28615024      -3.24155184  F        0
H        3.19736723      10.11759060      -4.70766930  F        0
H        6.23944212       7.13797332      -3.24031999  F        0
Fe       7.46704853       8.51573268       1.49087945  T        0
Fe       9.69507683       6.99419714       2.94924927  T        1
O        9.02796862       7.63162504       1.32954125  T        2
