142
Lattice="19.123 0.0 0.0 0.0 14.277 0.0 0.0 0.0 7.5465" Properties=species:S:1:pos:R:3:move_mask:L:1:tags:I:1 i=128 E=-2603.9155142701 regions="_JSON [\"Active\"]" n_terminators=36 energy=-937.9242547239033 pbc="F F F"
O       15.69767512       8.42809998       5.65915710  T        0
O       12.73885981       1.04606238       1.77271518  T        0
O       15.62174933       5.79986049       5.84760377  T        0
O       13.03740187      13.14477266       1.47486751  T        0
O       12.74514027      13.23250727       5.76890371  T        0
O       15.69797728       5.84697846       1.88968434  T        0
O       13.03859131       1.12810662       6.05469195  T        0
O       15.62210474       8.47611171       1.69997178  T        0
O       16.91256110      10.90113542       6.37649075  T        0
O       11.50383344       3.39597185       2.39796119  T        0
O       16.96841032       3.59921091       6.40502036  T        0
O       11.86896792      10.85178462       2.50050399  T        0
O       11.50384442      10.88304458       5.14673347  T        0
O       16.91403401       3.37286210       1.17495412  T        0
O       11.86211690       3.42338389       5.04453637  T        0
O       16.97383210      10.67395538       1.14441885  T        0
O       16.26120258      10.08231999       3.69644033  T        0
O       12.27663044       3.01047422      -0.08026845  T        0
O       16.25877233       4.19140300       3.85296477  T        0
O       12.53895062      10.98312984      -0.03532253  T        0
O       14.10973878      10.94073618       5.61629161  T        0
O       14.11070480       3.33261132       1.92847788  T        0
O       14.42716350       3.37762003       5.63227424  T        0
O       14.43367080      10.90294441       1.91695169  T        0
O       11.55312521       8.51058476       3.80734997  T        0
O       17.20571435       1.15793216      -0.37991050  T        0
O       11.55256445       5.76692272       3.73992529  T        0
O       17.32457574      13.15636620       0.06566790  T        0
O        9.49513586      10.24417855       3.40364387  T        0
O        9.48997739       4.03720048       4.13343942  T        0
O       13.40971703       7.11775291       5.11184656  T        0
O       13.41183106       7.15908385       2.43913167  T        0
O       14.16832381       6.98217157      -0.07122711  T        0
Al      15.63699281      10.24816204       5.42591089  T        0
Si      12.69576475       2.69135424       1.49240842  T        0
Si      15.80068044       4.20737271       5.45405286  T        0
Si      12.96227489      11.49146508       1.47419580  T        0
Si      12.69715032      11.58760160       6.05170455  T        0
Al      15.63669064       4.02691955       2.12287969  T        0
Si      12.95698169       2.78113179       6.06825051  T        0
Si      15.80439191      10.06793648       2.09496121  T        0
Si      11.09551430      10.10794692       3.75033420  T        0
Si      17.57199176       2.77324787      -0.18696173  T        0
Si      11.09260740       4.17002944       3.79382067  T        0
Si      17.52149276      11.53634223      -0.16002356  T        0
Si      14.71723009       7.15344474       6.07732368  T        0
Si      14.71776528       7.12213631       1.47168030  T        0
Si      12.44923624       7.13855626       3.77461593  T        0
O       21.52266192       3.19401319       9.09122202  T        0
O       21.63447690      11.09243376       8.97395671  T        0
O       20.94834902       1.14826241       7.43550492  T        0
O       20.96497103      13.13740213       7.36477034  T        0
O       19.13702488       2.99994850       7.80489392  T        0
O       19.21693532      11.27529452       7.66194283  T        0
O       24.17190326       7.25220474       7.66222352  T        0
Si      20.77106581       2.76894246       7.67650499  T        0
Si      20.84696357      11.50859922       7.57275732  T        0
O       22.84211518       8.49500030       5.67286797  T        0
O       22.85765537       5.78040432       5.82315670  T        0
O       22.84595296       5.78350044       1.87037610  T        0
O       22.86634471       8.49867321       1.72205063  T        0
O       21.53873859      10.71633386       6.27822054  T        0
O       21.31039429       3.67032967       6.39853152  T        0
O       21.53575656       3.56593059       1.26646256  T        0
O       21.31445805      10.60523036       1.14372544  T        0
O       22.18185437      10.17071446       3.66537183  T        0
O       22.18676945       4.10518270       3.87682239  T        0
O       24.09303501       3.38375111       2.35467455  T        0
O       24.09132874      10.89180144       5.17938988  T        0
O       23.79021629      11.09429905       1.59563616  T        0
O       23.78761289       3.18911723       5.95611080  T        0
O       20.96771706       1.14127430       0.18773090  T        0
O       27.04768200       8.40654873       3.78386413  T        0
O       20.94838693      13.12823868       0.10904657  T        0
O       27.04877301       5.87104668       3.77133238  T        0
O       19.21693295       3.00041007      -0.11543164  T        0
O       19.13813817      11.27762451      -0.25890247  T        0
O       25.04995357       7.12096419       5.12477707  T        0
O       25.05732973       7.15369232       2.41620467  T        0
O       24.17769768       7.02758044      -0.11835766  T        0
Si      22.64974739      10.07409457       5.24230735  T        0
Si      22.56648475       4.19583223       5.48113975  T        0
Si      22.65193047       4.20387076       2.29914398  T        0
Si      22.57021610      10.08258881       2.06303156  T        0
Si      20.84671229       2.76875857      -0.02627840  T        0
Si      20.77222598      11.50752799      -0.13204930  T        0
Si      23.70782533       7.15758536       6.06856554  T        0
Si      23.71337067       7.11991817       1.47497766  T        0
Si      25.99609587       7.13835724       3.77301195  T        0
O       21.52397157      11.08127945      -1.54647236  T        0
O       21.63793880       3.18029487      -1.42683517  T        0
O       16.69577302       3.17692265       9.08240479  T        0
O       17.10191670      10.64028660       9.08927615  T        0
O       12.52766269       3.27859745       7.57969746  T        0
O       12.27816366      11.27502210       7.62601665  T        0
O       17.32658030       1.11803500       7.48102296  T        0
O       17.20677708      13.11958504       7.92474375  T        0
O       14.16981970       7.29147461       7.62122825  T        0
Si      17.52076993       2.73812776       7.70815039  T        0
Si      17.57171673      11.50325670       7.73675245  T        0
O       16.69607010      11.09417525      -1.53275202  T        0
O       17.10304568       3.63964551      -1.53709427  T        0
H       13.50938118       0.51971906       2.07492992  F        0
H       13.50958039      13.75682243       2.07498241  F        0
H       13.51084140      13.75504172       5.44776650  F        0
H       13.50975252       0.52161770       5.44778410  F        0
H       12.76076393       2.97683097      -0.93375646  F        0
H       12.76174962      11.29928001      -0.93393629  F        0
H       16.56036088       0.51548555      -0.00076213  F        0
H       16.56020813      13.76127004      -0.00066979  F        0
H        8.59739021      10.07362933       3.76217937  F        0
H        8.59637561       4.20354031       3.76204115  F        0
H       14.60982961       7.13673871      -0.92783774  F        0
H       22.00636260       3.98381786       9.40800429  F        0
H       22.00483182      10.29715766       9.41435165  F        0
H       21.68544240       0.51556882       7.54734209  F        0
H       21.68557806      13.76129914       7.54737584  F        0
H       23.63198861       7.14016697       8.47499567  F        0
H       24.75935035       3.15857028       1.68481677  F        0
H       24.76092223      11.11473374       5.84604825  F        0
H       24.75845825      11.12041654       1.68709931  F        0
H       24.75385446       3.15950316       5.84781029  F        0
H       21.68544240       0.51556882       0.00084209  F        0
H       26.93014812       9.37398274       3.76239518  F        0
H       21.68557806      13.76129914       0.00087584  F        0
H       26.92977964       4.90364681       3.76170371  F        0
H       23.63475007       7.13509558      -0.92932085  F        0
H       22.00608000      10.28902905      -1.85963567  F        0
H       21.98145514       3.97853683      -1.88343379  F        0
H       16.24121950       3.98053732       9.41400179  F        0
H       16.24088130      10.29526047       9.41338238  F        0
H       12.76321398       2.97604733       8.47995589  F        0
H       12.76333233      11.30075111       8.47967776  F        0
H       16.56036088       0.51548555       7.54573787  F        0
H       16.56020813      13.76127004       7.54583021  F        0
H       14.61405599       7.13800201       8.47661577  F        0
H       16.24044124      10.28985035      -1.86101282  F        0
H       16.23925818       3.97887666      -1.85852020  F        0
Fe      17.29668908       8.41407132       4.32572233  T        0
Fe      17.29594098       5.85887767       3.22520966  T        0
O       18.54481149       6.84054370       4.47204057  T        0
O       18.54470114       7.43139346       3.07884563  T        0
