145
Lattice="20.102 0.0 0.0 0.0 19.731 0.0 0.0 0.0 13.253" Properties=species:S:1:pos:R:3:move_mask:L:1:tags:I:1 i=77 E=-3472.0240129048 regions="_JSON [\"Active\"]" n_terminators=32 energy=-985.9796218640149 pbc="F F F"
O       10.21441572       8.58815206       9.70341252  T        0
O       10.04027163      11.54591873       3.81352060  T        0
O        2.26004638      11.24059919       3.92883800  T        0
O        7.67920749       8.66504299      10.49715214  T        0
O        8.68873782       2.77600367       8.41960934  T        0
O        2.19904544      12.76341742       1.77354984  T        0
O        8.29667785       7.34878106       8.27673237  T        0
O        2.09767176      10.06352858       1.59171812  T        0
O        8.42315004      10.04461296       8.37208346  T        0
O        3.76138551      11.25457494       6.11725480  T        0
O        6.52314647       8.62354217      12.81894647  T        0
O        3.81993791       9.13209311       4.51536538  T        0
O        6.65459301      10.97038720      11.57566918  T        0
O        3.76247519       0.81002508       4.50599147  T        0
O        5.53197006       0.54085443      10.27615993  T        0
O        4.89951702      11.48359192       3.74195154  T        0
O        5.02959436       9.03864042      10.60655496  T        0
O        6.27672053       2.44628972       1.24006898  T        0
O        4.76351116      12.60192876       8.27908972  T        0
O        5.84123235       7.31784681       1.20273183  T        0
O        6.16138185      10.70381838       7.15801576  T        0
O        4.11413467       9.07082557       0.08948072  T        0
O        3.86902290      10.09353583       8.46588137  T        0
O        5.83264176       9.82944217       1.96850924  T        0
O        2.30621649       2.57084985       0.96226311  T        0
O        8.08711605      12.58394689       7.59723554  T        0
O        2.06408146       7.53716769       0.73885272  T        0
O        8.45322972      10.66760624       5.82196501  T        0
O        2.88207590       0.85114839      10.64391053  T        0
O        7.52429898      11.21702649       3.41458753  T        0
O        2.49147588       8.31695080       9.96369040  T        0
O        9.07529391       9.03964265       3.83035350  T        0
O        8.34134029       0.79175608       3.75467946  T        0
O        4.15132017       2.35827284       8.75143323  T        0
O        6.23921449      12.52399994       1.60152068  T        0
O        4.45475910       7.50891783       8.48583948  T        0
O       -0.02634211       7.08815263       2.72483429  T        0
O        0.09050845       2.72151873       2.55844463  T        0
O       10.43122375       2.52168079       3.71199239  T        0
O       10.21731821       6.59482297       3.62319886  T        0
O        2.40005461       6.98795224       3.68109296  T        0
O        2.48621545       3.01286477       3.62303913  T        0
O        1.56578252       4.87552499       1.95768198  T        0
O        3.71389398       6.86962272       5.95177533  T        0
O        3.71766852       3.09811567       5.90402319  T        0
O        5.07837677       6.90775936       3.70089141  T        0
O        5.17526566       2.86575371       3.67358650  T        0
O        4.19454277       4.99506643       7.58896555  T        0
O        6.24715563       6.56935912       6.76930228  T        0
O        6.39726466       3.13044357       7.02025078  T        0
O        8.36130406       4.96732395       7.04932297  T        0
O        8.54784198       7.21869767       5.65435847  T        0
O        8.70356372       2.65129627       5.75516629  T        0
O        7.67080909       6.87769760       3.13618611  T        0
O        7.81452968       3.24499496       3.31080304  T        0
O        6.09093919       4.91157076       2.25332508  T        0
Si       1.60117147      11.37356506       2.43086281  T        0
Si       8.65492346       8.65463323       9.19182401  T        0
Si       3.68878997      10.77071317       4.56092342  T        0
Si       6.46265576       9.34579762      11.34849788  T        0
Si       4.63336041      11.16130291       7.49270912  T        0
Si       5.61649613       8.85956671       0.69204691  T        0
Si       7.77293176      11.01366472       7.24366563  T        0
Si       2.49696794       9.05094305       0.37490536  T        0
Si       8.77198461      10.59692672       4.22789139  T        0
Si       4.10383052       0.93816111       9.52569747  T        0
Si       6.10109801      11.28014118       2.65469870  T        0
Si       3.96743578       8.76279766       9.40672725  T        0
Al       1.61557187       6.58941130       2.08819504  T        0
Si       1.59346109       3.29742497       2.26353728  T        0
Si       3.76870315       7.51843975       4.41903980  T        0
Si       3.79321382       2.42065688       4.39559044  T        0
Si       4.70946090       6.51027202       7.24908106  T        0
Al       4.73723649       3.27773966       7.41235677  T        0
Si       7.87616857       6.51070989       6.94996410  T        0
Si       7.98926931       3.36544398       7.04620756  T        0
Si       8.87674081       7.43856863       4.07168178  T        0
Si       8.85662822       2.30703158       4.16525506  T        0
Si       6.19337954       6.49990945       2.57023611  T        0
Si       6.33534526       3.33521714       2.62016988  T        0
O        6.75001513       9.26798565      -0.41452605  T        0
O        1.71130989       9.68266757      -0.92404364  T        0
O        2.01431967      -1.17570345       4.00814001  T        0
O        3.64574160      -1.37048189       6.01900855  T        0
O        4.57244533      -1.51059684       3.41140184  T        0
O        4.62687194      -2.82842871       8.08710532  T        0
O        6.04718046      -0.96235544       6.71071834  T        0
O        3.95548575      -0.26370520       8.41269672  T        0
Si       3.54098101      -0.80904074       4.49380362  T        0
Si       4.57981288      -1.34648553       7.36442769  T        0
O       -0.02527625      11.40612174       2.62889725  T        0
O       -4.47062944       7.25783678       5.27151482  T        0
O       -4.39181316       2.60104171       5.21853724  T        0
O       -1.58898802      11.12568610       0.62288733  T        0
O       -2.67388199      11.66063270       3.09302796  T        0
O       -1.72280001       0.74327561       2.97949973  T        0
O       -1.61832217       9.26621588       2.68649501  T        0
O       -4.78020205       2.83246724       2.47111672  T        0
O       -4.76118408       7.15027879       2.51252640  T        0
O       -1.90005328       2.27636193       0.79420021  T        0
O       -1.91459952       7.58742189       0.78622781  T        0
O       -2.39584371       3.20212413       3.35622369  T        0
O       -2.44272779       6.85479476       3.46348950  T        0
O       -4.24308199       4.95114820       4.08364692  T        0
Si      -1.51428683      10.84538790       2.24083532  T        0
Si      -1.46487580       2.25469896       2.38781503  T        0
Si      -1.52980260       7.67931313       2.37427538  T        0
Si      -3.96871813       3.34873935       3.81040848  T        0
Si      -4.01639608       6.54810846       3.85586338  T        0
H       10.95532307       8.85008497       9.12727255  F        0
H       10.94686465      11.30097846       4.04088346  F        0
H        8.32487049       1.96348467       8.80281458  F        0
H        2.20758188      13.00694286       0.83020008  F        0
H        6.01931354       8.91222751      13.59787507  F        0
H        6.45001595      11.67065412      10.93294989  F        0
H        5.99284639       0.93401564      11.03719697  F        0
H        5.69664664       1.68513527       1.05659762  F        0
H        4.03182275      12.92715973       8.82439874  F        0
H        2.35337064       1.61243811       0.82192755  F        0
H        8.21123678      12.90527891       8.50458507  F        0
H        1.92726146       1.06764952      10.59110356  F        0
H        1.92726146       8.79770260      10.59110356  F        0
H        8.57917594      -0.10444883       4.04180490  F        0
H        5.53537813      12.95496052       1.09262639  F        0
H       11.09748793       3.17088023       4.02620164  F        0
H       11.09748793       6.69447189       4.02620164  F        0
H        6.58577874       9.14969547      -1.35751146  F        0
H        1.54448592       9.14594745      -1.70877228  F        0
H        1.81269882      -1.43617684       3.09859994  F        0
H        5.52981240      -1.34062802       3.37578188  F        0
H        4.03182274      -3.06210338       8.82439872  F        0
H        6.92226376      -0.94135423       7.12331841  F        0
H       -4.35421061       8.18021682       5.56988654  F        0
H       -4.35421061       1.68513522       5.56988652  F        0
H       -2.15644976      10.75416907      -0.07046469  F        0
H       -3.49783775      11.30937631       3.49139018  F        0
H       -1.47168132      -0.10444883       2.58467926  F        0
H       -5.70518556       2.56164176       2.37811508  F        0
H       -5.70518557       7.30371036       2.37811510  F        0
H       -2.04192549       3.05661076       0.22907734  F        0
H       -2.04192548       6.80874135       0.22907734  F        0
Fe       0.46656046       6.48968218       4.57713825  T        0
Fe       2.56795780       4.78455124       6.21247055  T        0
O        0.85752809       5.94132546       6.46115205  T        0
O        0.64971078       4.72107292       5.58541637  T        0
