136
Lattice="19.123 0.0 0.0 0.0 14.277 0.0 0.0 0.0 7.5465" Properties=species:S:1:pos:R:3:move_mask:L:1:tags:I:1 i=128 E=-2603.9155142701 regions="_JSON [\"Active\"]" n_terminators=30 energy=-921.6843713781493 pbc="F F F"
O       15.96125074       8.43979739       5.56429479  T        0
O       12.93231961       1.36028635       1.55258256  T        0
O       15.53337289       5.91852859       5.79577150  T        0
O       15.69353112       5.87403471       1.77465570  T        0
O       12.89946095       1.12758537       5.62898571  T        0
O       15.87001098       8.51000436       1.65027238  T        0
O       11.72591616       3.61697351       2.40796861  T        0
O       17.14046771       3.43990096       6.11314903  T        0
O       16.92737689       3.54833643       1.13710264  T        0
O       11.63187643       3.43991417       5.08397863  T        0
O       12.57623570       3.47018152      -0.11150525  T        0
O       16.32452461       4.03319509       3.65638041  T        0
O       14.35332949       3.56686611       1.90779219  T        0
O       14.27880937       3.35253084       5.59434421  T        0
O       11.34812695       8.40075532       3.67982849  T        0
O       17.01206931       1.31885691      -0.34859674  T        0
O       11.82041784       5.82750646       3.87550478  T        0
O        9.51943236       4.55084041       3.72539569  T        0
O       13.44064713       7.52865999       5.17159110  T        0
O       15.45027314      -0.07817669       1.29901200  T        0
O       15.32776787       0.02313685       6.17871324  T        0
O       13.55509717       7.34737816       2.50447753  T        0
O       14.18349321       7.18593333      -0.04863881  T        0
O       14.43860936      -0.01521855       3.70613799  T        0
Si      12.88237446       2.97095932       1.44188417  T        0
Al      15.69068002       4.28730656       5.36019282  T        0
Si      15.79917342       4.27622321       2.08675313  T        0
Si      12.83616636       2.74981367       5.96937489  T        0
Si      17.57878541       2.86686675      -0.21803618  T        0
Si      11.14796397       4.33191441       3.77749096  T        0
Si      14.82840313       7.33567308       6.04048030  T        0
Al      13.75827167      -0.07956074       2.00266846  T        0
Si      13.94225658      -0.07271750       5.30097664  T        0
Si      14.82046833       7.24714281       1.47652889  T        0
Si      12.55273809       7.28433325       3.81178793  T        0
Si      16.21704966      -0.10285326      -0.17955785  T        0
O       21.71303096       3.19109755       8.90873417  T        0
O       21.30290342       1.29006404       7.08374730  T        0
O       19.24205710       2.94940172       7.72299967  T        0
Si      20.88647870       2.83062897       7.51928677  T        0
O       21.19705299       3.84698616       6.23968114  T        0
O       21.23133556       3.87455875       1.26465858  T        0
O       21.34562186       1.30619791       0.46891204  T        0
O       19.21879078       2.88638008      -0.13665090  T        0
Si      20.87495624       2.82860651       0.02301547  T        0
O       21.62525022       3.19407464      -1.41027941  T        0
O       19.18784803      -3.18206481       7.86077595  T        0
O       19.17771575      -3.27887499       0.13282930  T        0
O       12.98037729       1.22635409       9.58572718  T        0
O       15.49953144       5.87958634       9.54304365  T        0
O       15.63541765       8.45739863       9.91664123  T        0
O       11.54588542       3.48624539       9.94651276  T        0
O       16.82584362       3.66939877       8.78482384  T        0
O       12.53003475       2.92486498       7.57607223  T        0
O       16.26031496       3.98145109      11.34433236  T        0
O       14.25190107       3.54742045       9.56359789  T        0
O       17.17560143       1.25292730       7.64561628  T        0
O       15.21126710      -0.08788332       8.85802672  T        0
O       13.16260398       7.23520172       9.84329317  T        0
O       14.46835807       7.53054050       7.63418065  T        0
O       14.55156616      -0.06366296      11.38983603  T        0
Si      12.83808587       2.81490810       9.17948517  T        0
Si      15.68932832       4.27931639       9.82373245  T        0
Si      17.60204099       2.83390876       7.60850370  T        0
Si      13.92067525      -0.08329422       9.86662052  T        0
Si      14.69845404       7.28067284       9.22918067  T        0
Si      16.20900982      -0.06733625       7.57149435  T        0
O       17.13771576       3.72585817      -1.56175432  T        0
O       15.14053394      -0.45729163      -1.38111449  T        0
O       13.03158112      -1.43427751       9.60064799  T        0
O       15.71375835      -6.04531860       9.81304673  T        0
O       11.54059180      -3.68292448       9.85712220  T        0
O       16.79364391      -3.73989131       8.81219127  T        0
O       16.27800188      -3.94131227      11.36604530  T        0
O       12.61486200      -3.12697406       7.55634915  T        0
O       14.22974759      -3.82395539       9.57683689  T        0
O       17.14067317      -1.40609997       7.53604866  T        0
Si      12.87570746      -3.00932572       9.16875685  T        0
Si      15.73591373      -4.39349985       9.87766660  T        0
Si      17.57679207      -2.99564643       7.58078895  T        0
O       15.94310848      -6.04862251       5.67888518  T        0
O       12.96002715      -1.55815443       1.66584402  T        0
O       13.19251329      -1.48920451       5.54513285  T        0
O       15.91590386      -5.98839405       1.73334271  T        0
O       17.10573327      -3.69065665       6.15794298  T        0
O       11.62732592      -3.80470190       2.35256835  T        0
O       11.91832547      -3.76311088       5.02924090  T        0
O       16.78923697      -3.53871556       1.22952793  T        0
O       16.12733921      -4.16782056       3.72999048  T        0
O       12.50397924      -3.51000726      -0.15356217  T        0
O       14.45735832      -3.82171968       5.79545514  T        0
O       14.21369943      -3.91029235       1.89596844  T        0
O       11.30345392      -6.09049619       3.78849852  T        0
O       17.27894686      -1.34534919      -0.18279063  T        0
O        9.51989333      -4.09219285       4.07829110  T        0
Si      15.89641578      -4.43224864       5.33424137  T        0
Si      12.82736001      -3.14787384       1.43422334  T        0
Si      13.02948292      -3.05536259       5.97913425  T        0
Si      15.74356346      -4.40148134       2.14616273  T        0
Si      11.09628933      -4.44197088       3.77501001  T        0
Si      17.57997621      -2.97366329      -0.09644632  T        0
O       17.11266787      -3.73651391      -1.48720917  T        0
H       15.75671561       9.37610020       5.45468838  F        0
H       15.75699573       9.38061947       2.07980242  F        0
H       12.76076393       2.97683097      -0.93375646  F        0
H       11.31595404       9.37380971       3.76235534  F        0
H        8.59637561       4.20354031       3.76204115  F        0
H       14.60982961       7.13673871      -0.92783774  F        0
H       22.00636260       3.98381786       9.40800429  F        0
H       21.68544240       0.51556882       7.54734209  F        0
H       21.98145514       3.97853683       5.66306621  F        0
H       22.00636260       3.98381786       1.86150429  F        0
H       21.68544240       0.51556882       0.00084209  F        0
H       21.98145514       3.97853683      -1.88343379  F        0
H       20.08739461      -2.93488337       7.54749186  F        0
H       20.08739461      -2.93488337       0.00099186  F        0
H       15.75699573       9.38061947       9.62630242  F        0
H       11.39369377       3.98884644      10.77146895  F        0
H       15.92754156       4.15729643      12.25107281  F        0
H       12.88235039       7.13795337      10.76981689  F        0
H       14.07270598       0.00010018      12.23669175  F        0
H       16.23925818       3.97887666      -1.85852020  F        0
H       14.44051635       0.00152190      -1.88177140  F        0
H       15.17712900      -6.61799919       9.23343573  F        0
H       11.39439525      -3.98966818      10.77116771  F        0
H       15.92688062      -4.16242016      12.25007275  F        0
H       15.17320598      -6.62175386       5.84596239  F        0
H       15.17712900      -6.61799919       1.68693573  F        0
H       12.76174962      -2.97771999      -0.93393629  F        0
H       12.12595522      -6.62290057       3.76264176  F        0
H        8.59739021      -4.20337067       3.76217937  F        0
H       16.24044124      -3.98714965      -1.86101282  F        0
Fe      16.39212712       0.11907262       3.12301016  T        0
Fe      17.68378324       2.62275454       4.31484637  T        1
O       17.92111595       0.57932535       4.34031073  T        2
O       18.14195219       1.19494219       2.97293418  T        3
