144
Lattice="20.102 0.0 0.0 0.0 19.731 0.0 0.0 0.0 13.253" Properties=species:S:1:pos:R:3:move_mask:L:1:tags:I:1 i=77 E=-3472.0240129048 regions="_JSON [\"Active\"]" n_terminators=34 energy=-971.4498572928757 pbc="F F F"
O       10.16963554       1.25985908       9.37764341  T        0
O       10.14362773       9.07157254       9.29701527  T        0
O        7.48936555       1.00754777      10.56205312  T        0
O        7.96429465       8.60949304      10.70543076  T        0
O       17.89470071       1.47268910       9.26856636  T        0
O        8.27624057       2.71829952       8.28658531  T        0
O        8.25948698       7.56462435       8.21939939  T        0
O        8.07314322      -0.20121608       7.96606077  T        0
O        7.75369756      10.20089569       8.62584030  T        0
O       11.54645434      10.03677486       5.06880180  T        0
O        6.21575639       0.34045296      12.86996387  T        0
O       16.47647586       9.51553471       7.10188917  T        0
O       16.44243560       0.83854883       7.21025225  T        0
O       13.90711665       0.71872776       2.42092889  T        0
O       14.05121750       9.19192428       2.57162380  T        0
O        4.82416948       1.29301960      10.70511578  T        0
O       15.25401790       0.80596090       9.56913212  T        0
O       15.91483269       7.46282393       5.33939247  T        0
O       16.33564358       2.40560069       5.07829828  T        0
O       14.10449156       9.37095802       5.80534662  T        0
O       14.11215373       1.32458395       6.04920906  T        0
O       16.45234829       9.96921616       4.57819779  T        0
O       15.89121234      -0.23826156       4.86058011  T        0
O       12.28773260       7.45729444       5.24702729  T        0
O       11.90449032       2.60734136       5.34640533  T        0
O       12.02535198       8.86547718       7.40939310  T        0
O       11.92527926       0.98406032       7.49018107  T        0
O        2.28780289       1.62993565       9.89107004  T        0
O       12.58120293       8.45548155      10.02003790  T        0
O       12.73754799       1.44339967      10.00056170  T        0
O        8.17770132       9.12562808       3.75252482  T        0
O        8.53201828       0.77194166       4.53420473  T        0
O       12.08350476      10.94541423       9.02987396  T        0
O        4.19327329       2.75603670       8.55413271  T        0
O        4.06494212       7.16181030       8.67535031  T        0
O       14.66926558       2.79299243      11.24279857  T        0
O        9.77478119       2.91140562       3.40319622  T        0
O       10.17134935       7.24887042       3.62283004  T        0
O       12.57677404       3.03663566       2.50327904  T        0
O       12.64118503       6.87327144       2.66029993  T        0
O       11.59088550       5.06807443       4.37231798  T        0
O        3.54435281       7.39714171       6.04588871  T        0
O        3.51609670       2.71806343       6.02042761  T        0
O       14.15219731       2.28469887       0.40429054  T        0
O       14.03822314       7.53564413       0.46164211  T        0
O       15.21438701       3.02998183       2.75797758  T        0
O       15.34542584       6.94073319       2.75002184  T        0
O        4.25945394       5.04238798       7.17175442  T        0
O        6.05750587       6.99804018       6.80678474  T        0
O        6.08629109       3.17412402       6.74839733  T        0
O        7.89403970       5.12251974       7.29545885  T        0
O        8.41975277       7.16105193       5.61531363  T        0
O        8.49806900       3.15001648       5.66231114  T        0
O        7.74494374       6.56966721       3.05199647  T        0
O        7.03200992       2.55553913       3.44512734  T        0
O       17.84427813       3.52408333       3.11881829  T        0
O       17.91198675       6.87842824       3.71514280  T        0
O       16.09914854       4.99054945       4.36453490  T        0
Al       8.36949933       1.06905582       9.07861462  T        0
Si       8.53428605       8.85448910       9.18583236  T        0
Si       6.12199995       0.43135013      11.22516635  T        0
Si      16.65921907       0.51202731       8.78615227  T        0
Si      15.72024989       9.05225385       5.72496555  T        0
Si      15.70219152       1.08145741       5.78678501  T        0
Si      12.52896256       8.96840914       5.87276016  T        0
Si      12.49877865       1.19386183       5.97205914  T        0
Si      11.71267762       9.34083031       8.94283593  T        0
Si      11.67251742       0.63614033       9.06873595  T        0
Si       3.83605269       1.40144915       9.39917343  T        0
Si      14.21548242       1.31116180      10.71241349  T        0
Al      11.42130202       3.32906111       3.73583064  T        0
Si      11.66097824       6.67649582       3.94966394  T        0
Si      13.93382410       2.30176937       2.03915568  T        0
Si      14.00980344       7.60793603       2.10423573  T        0
Si       4.49305127       6.65492747       7.17425824  T        0
Si       4.50623331       3.43084420       7.11343087  T        0
Si       7.65273413       6.70869519       6.98342293  T        0
Si       7.64594158       3.53358650       6.98700645  T        0
Si       8.61734101       7.56094989       4.03813810  T        0
Si       8.48424422       2.36211780       4.20564172  T        0
Si      16.36197932       3.46485598       3.82898075  T        0
Si      16.33247765       6.57797322       4.01686740  T        0
O       10.02128188      -1.27854723       3.82141949  T        0
O       12.55244226      -1.50282752       2.90699759  T        0
O       11.62789765      -2.77419368       5.15690319  T        0
O       12.05213508      -0.07690967       5.07956743  T        0
O        3.17320635      -0.96983186       6.15503292  T        0
O       13.62226211      -1.22418486       0.48053935  T        0
O        5.80671701      -1.11688115      10.71973465  T        0
O       17.10808901      -1.05505470       9.05041625  T        0
O       15.22423546      -1.53975690       2.64001263  T        0
O        3.69299569      -2.59633405       8.04489810  T        0
O        5.75130159      -1.14807484       6.90376939  T        0
O        4.01039244       0.07354911       8.47753757  T        0
O       14.18730729       0.28571846      12.00513014  T        0
O        7.42287410      -2.82397550       7.98636596  T        0
O        8.07134303      -1.55678269       5.68847265  T        0
O        7.51184317      -1.28771673       3.05671419  T        0
O       17.81928850      -1.51221824       3.44503545  T        0
O       11.93351878      -0.93139663       9.48020240  T        0
O       16.17059711      -2.92668967       4.77940584  T        0
Si      11.59276319      -1.40857485       4.23577195  T        0
Si      13.82927015      -0.87427802       2.07401213  T        0
Si       4.19655723      -1.16148154       7.42792939  T        0
Si       7.34885161      -1.39324531       7.15329496  T        0
Si       8.51088993      -0.84062297       4.28541994  T        0
Si      16.24740583      -1.52663495       3.91990067  T        0
H        7.07153747       8.87866318      10.98534327  F        0
H       18.28958667       1.43588107      10.15436837  F        0
H        7.75914502      10.43742179       7.68600442  F        0
H       11.77602644      10.74421016       4.43990149  F        0
H        6.01931354       0.95312461      13.59787507  F        0
H       16.63692148       9.14969546       7.98396390  F        0
H       13.51039517       9.91158020       2.21468908  F        0
H       15.98978727      10.64983953       4.07102857  F        0
H        1.92726146       1.06764952      10.59110356  F        0
H       13.54926599       8.42132791      10.11787432  F        0
H        8.57917776       9.96978004       4.04186183  F        0
H       11.43576677      11.60834527       9.31342917  F        0
H        4.22937585       8.00675492       9.12987558  F        0
H       14.56690736       3.08960840      12.16034191  F        0
H        3.68470478       7.32851759       5.08310689  F        0
H        3.68470477       2.53683452       5.08310689  F        0
H       14.23421140       3.11626372      -0.07819396  F        0
H       14.23421140       6.74908840      -0.07819396  F        0
H        6.78202892       6.52695113       2.93525138  F        0
H        6.78202891       3.33840099       2.93525138  F        0
H       18.37141861       2.74226592       2.89672377  F        0
H       18.37141860       7.12308619       2.89672377  F        0
H       12.25872462      -3.14188650       5.79628408  F        0
H        3.46536401      -0.71595242       5.26900440  F        0
H       14.08297195      -0.95342037      -0.34490676  F        0
H        6.45001594      -1.80559776      10.93294989  F        0
H       16.50115869      -1.80559776       8.94650256  F        0
H        4.03182274      -3.06210338       8.82439872  F        0
H       14.37509522      -0.66310164      11.91539968  F        0
H        8.21123678      -3.04022255       8.50458507  F        0
H        6.55301950      -1.44431996       3.13509397  F        0
H       18.17502403      -1.06794529       2.66186474  F        0
H       11.43576677      -1.74328893       9.31342918  F        0
H       15.58652088      -3.08990418       5.53385776  F        0
Fe      11.73131937       4.50316355       6.30268491  T        0
Fe      10.22686190       3.23307767       8.69092882  T        1
O       11.37454201       4.49360322       8.07982852  T        2
