145
Lattice="20.102 0.0 0.0 0.0 19.731 0.0 0.0 0.0 13.253" Properties=species:S:1:pos:R:3:move_mask:L:1:tags:I:1 i=77 E=-3472.0240129048 regions="_JSON [\"Active\"]" n_terminators=30 energy=-1002.3710169618232 pbc="F F F"
O       10.22101384       1.36086031       9.66466987  T        0
O       10.08421903       8.97405062       9.49987557  T        0
O       10.13882999      11.39671700       4.23753578  T        0
O        7.75840366       1.35164567      10.60330098  T        0
O        2.22479327      11.38274576       3.97526061  T        0
O        7.66975141       8.61944374      10.60097820  T        0
O       12.22112521      11.22698022       2.65525185  T        0
O        8.19694754       2.68606495       8.42567110  T        0
O        8.47859494       7.11740739       8.43508889  T        0
O       12.44570777      12.62536806       4.91817392  T        0
O        8.36229912       0.01910476       8.26616689  T        0
O        7.83658870       9.65542031       8.20783151  T        0
O       12.26022762       9.91783923       5.00244538  T        0
O        6.54859478       0.50753589      12.90739215  T        0
O        3.66750413      10.76347369       6.08427687  T        0
O        6.31179490       9.41595506      12.81104511  T        0
O        3.54538643       9.05561693       4.03445896  T        0
O        6.10679777      10.84622235      10.56186334  T        0
O        3.44133139       0.73204049       4.21991738  T        0
O        5.07383370       1.09915059      10.72586795  T        0
O        4.93366560      11.39449241       3.88495065  T        0
O        4.99273645       8.48983778      10.56924464  T        0
O        6.05299292       2.24543910       1.24314921  T        0
O        3.72243949      12.52994290       7.99742535  T        0
O        6.02275762       7.49742156       1.09930540  T        0
O        3.98521536       0.91136495       0.03803027  T        0
O        6.00453595      11.33253451       7.29584396  T        0
O        3.98765093       9.00341660       0.04567106  T        0
O       14.25878729       8.93439647       6.56964068  T        0
O        5.61461932      -0.32571070       1.82336632  T        0
O        4.07500914       9.91661948       8.53829503  T        0
O        5.73727233      10.01547701       1.88595004  T        0
O        8.52105167      12.24157446       7.87268618  T        0
O       12.37778503       7.32634900       5.44347692  T        0
O       12.48044410       2.54517521       5.54881440  T        0
O        8.14584583      10.67096873       5.84505860  T        0
O       11.80176739       8.97662863       7.46414709  T        0
O        2.50657582       1.63644773      10.06989531  T        0
O        7.58402530      11.31437299       3.35476238  T        0
O        2.36995117       8.28353235       9.90067837  T        0
O       12.59320189       8.30914414       9.97460424  T        0
O        8.90505460       9.09212523       3.86984825  T        0
O        8.64329243       0.70694477       3.66440369  T        0
O       12.04132404      10.85280596       9.39567244  T        0
O        4.34260754       2.53881811       8.56981933  T        0
O        6.11865074      12.74261692       1.83528545  T        0
O        4.09383846       7.26293746       8.32106651  T        0
O       10.21281699       2.82921369       4.01633506  T        0
O       10.51208685       6.98296944       3.56829291  T        0
O        3.00183852       6.63195632       3.01812284  T        0
O        2.09087937       2.98119805       3.77849044  T        0
O       12.42954271       2.85767650       2.79316218  T        0
O       13.07902395       6.29226857       3.02098228  T        0
O       11.76253407       4.84154976       4.63684708  T        0
O        3.70727521       6.92771095       5.67799900  T        0
O        3.53254168       2.66215651       6.01244547  T        0
O        5.43289238       7.21296848       3.67736357  T        0
O        4.79754544       2.98595497       3.69417470  T        0
O        4.32222981       4.86782123       7.27701873  T        0
O        6.14647200       6.74835662       6.72194714  T        0
O        6.09269613       2.93111969       6.69936016  T        0
O        8.04671315       4.68639693       6.60964214  T        0
O        8.58951163       6.81149861       5.38224049  T        0
O        8.47063630       2.18853781       5.87253692  T        0
O        7.92980433       6.74718943       2.94252112  T        0
O        7.66110305       3.26194855       3.59637189  T        0
O        6.15579701       5.03742728       2.25696479  T        0
Si       8.63878495       1.31362391       9.22268102  T        0
Si       8.53001507       8.55055739       9.19034493  T        0
Si      11.77556808      11.28331708       4.23871183  T        0
Si       6.51144685       0.51885303      11.26110158  T        0
Si       3.60538808      10.63647031       4.47130024  T        0
Si       6.28270997       9.30927158      11.16599026  T        0
Si       5.51676466       0.82862747       0.67511473  T        0
Si       4.39261843      11.11598498       7.49554958  T        0
Si       5.52165353       9.00139477       0.64738684  T        0
Si       7.59059289      10.98534337       7.33378818  T        0
Si      12.68271805       8.79487621       6.11240399  T        0
Si       8.69479807      10.65020335       4.33102428  T        0
Si      11.62762226       9.28622935       9.07455444  T        0
Si       3.99188987       1.25408494       9.49582409  T        0
Si       6.08162147      11.36782165       2.72396693  T        0
Si       3.89506053       8.50952687       9.33759903  T        0
Si      11.76856591       3.25288852       4.24308252  T        0
Si      11.92598378       6.39471947       4.18383127  T        0
Si       3.87830455       7.45813515       4.14614056  T        0
Si       3.49825005       2.36003772       4.39431107  T        0
Si       4.58991414       6.45670875       6.99770503  T        0
Si       4.54651550       3.26858166       7.13042903  T        0
Al       7.81861171       6.44590311       6.99124419  T        0
Si       7.68067983       3.12196386       6.95731820  T        0
Si       9.01426415       7.50193476       3.95573468  T        0
Si       8.74600198       2.19427022       4.26819487  T        0
Si       6.31873079       6.61723671       2.43927939  T        0
Al       6.08312252       3.31671386       2.59760382  T        0
O        6.46718170       0.22982292      -0.53156669  T        0
O        6.50026338       9.60622004      -0.51588996  T        0
O       10.03892093      -1.61810194       3.73722322  T        0
O        2.20276935      -1.61397275       3.97964022  T        0
O        3.58058489      -1.08661146       6.22992348  T        0
O        6.86642834      -0.98052606      10.67545576  T        0
O        4.92021621      -1.49183796       4.06585103  T        0
O        4.64599633      -2.71031757       8.16375542  T        0
O        6.12067985      -0.84485305       7.13217568  T        0
O        4.00107729      -0.14420081       8.64855000  T        0
O        8.17665299      -2.62320897       7.63062793  T        0
O        8.39487885      -0.88112061       5.76584576  T        0
O        7.45391387      -1.61120392       3.33907370  T        0
O        5.61690629      -3.03215637       2.05374181  T        0
Si       3.52479906      -0.84548805       4.60543827  T        0
Si       4.57382689      -1.19091011       7.52829898  T        0
Si       7.73688313      -1.09073290       7.24124410  T        0
Si       8.63783136      -0.86933623       4.15887677  T        0
Si       5.91418607      -1.59508148       2.78547221  T        0
H       10.95532306       1.01526715       9.12727255  F        0
H        1.81269882      11.30123319       3.09859993  F        0
H       13.03074804      10.85204106       2.26762503  F        0
H       12.25872463      13.00694285       5.79628406  F        0
H        6.01931354       0.95312461      13.59787507  F        0
H        6.01931354       8.91222751      13.59787507  F        0
H        6.45001595      11.67065412      10.93294989  F        0
H        4.03182275      12.92715973       8.82439874  F        0
H        3.12887898       0.94105847       0.49683427  F        0
H        3.12887899       8.92429365       0.49683426  F        0
H       15.03932990       8.88569483       5.99268334  F        0
H        8.21123678      12.90527891       8.50458507  F        0
H       12.40451338       1.61243810       5.80455660  F        0
H        1.92726146       1.06764952      10.59110356  F        0
H        1.92726146       8.79770260      10.59110356  F        0
H       13.54926599       8.42132791      10.11787432  F        0
H       11.43576677      11.60834527       9.31342917  F        0
H        5.53537813      12.95496052       1.09262639  F        0
H        2.04924741       6.48050321       2.89306910  F        0
H        2.04924740       3.38484890       2.89306909  F        0
H       13.35632229       2.80449888       2.51220488  F        0
H       13.35632228       7.06085325       2.51220488  F        0
H        6.58577873       0.71565665      -1.35751145  F        0
H        6.58577874       9.14969547      -1.35751146  F        0
H       10.94686465      -1.43592210       4.04088346  F        0
H        1.81269882      -1.43617684       3.09859994  F        0
H        6.45001594      -1.80559776      10.93294989  F        0
H        4.03182274      -3.06210338       8.82439872  F        0
H        8.21123678      -3.04022255       8.50458507  F        0
H        5.53537813      -3.08990416       1.09262638  F        0
Fe       7.91560420       5.03599645       4.49999159  T        1
