136
Lattice="19.123 0.0 0.0 0.0 14.277 0.0 0.0 0.0 7.5465" Properties=species:S:1:pos:R:3:move_mask:L:1:tags:I:1 i=128 E=-2603.9155142701 regions="_JSON [\"Active\"]" n_terminators=32 energy=-912.1017078822223 pbc="F F F"
O        5.87280197       1.13001478       1.36286392  T        0
O       15.74610975       8.42309997       5.80086945  T        0
O       13.02351804       1.14476747       1.50401909  T        0
O        3.25024151       8.40236047       5.46754792  T        0
O       15.70072649       5.73511101       5.83338470  T        0
O       12.88515122      13.00942468       2.15772914  T        0
O        3.42190381       5.78749247       5.92753450  T        0
O       13.32352176      13.18911777       6.21705183  T        0
O        3.41504610       5.84469573       1.61083743  T        0
O       15.81082072       5.76525989       1.82970347  T        0
O       12.91056251       1.13441578       5.91613179  T        0
O        3.18464203       8.47350659       1.77525382  T        0
O        5.98528916       1.15114780       6.10376957  T        0
O       15.69077370       8.46408104       1.78029786  T        0
O        7.06630708       3.32103051       2.51698137  T        0
O       17.21732104      10.65739976       6.15859161  T        0
O       11.91903845       3.45132313       2.47664494  T        0
O        7.51868172      10.72513306       2.18587500  T        0
O       17.12555537       3.44109855       6.10762181  T        0
O       11.69595523      10.64609605       2.11839135  T        0
O        1.89885928       3.57231799       6.10433702  T        0
O       12.07873223      11.07463605       4.99738067  T        0
O        1.85861228       3.66102015       1.36974643  T        0
O        6.88251471      11.13586974       4.68207290  T        0
O       17.15478029       3.43049243       1.46719767  T        0
O       11.83861846       3.49570016       5.11002826  T        0
O        7.20512595       3.48934360       5.35847225  T        0
O       16.97653702      10.79353569       1.35759928  T        0
O        6.48119158       3.33073226      -0.03662962  T        0
O       16.03589893      10.17739661       3.80209121  T        0
O       12.43465324       3.22633717      -0.05116914  T        0
O       16.05688798       4.00842010       3.79904733  T        0
O       12.71501343      11.66311012      -0.17858288  T        0
O        2.84804401       4.33532651       3.73366311  T        0
O        4.49988765       3.39603023       1.80852070  T        0
O       14.54880972      10.81490981       5.95388410  T        0
O       14.48087278       3.42373646       1.72352907  T        0
O       14.43747716       3.36465244       5.81621500  T        0
O       14.35925379      10.78522117       1.78248122  T        0
O        4.53785538       3.36161451       5.49258998  T        0
O       11.76273206       8.49386235       3.58196287  T        0
O        7.38600390       8.59294027       3.86224612  T        0
O       11.60874118       5.83630967       3.73654074  T        0
O       17.32248064      13.13842348       0.00315168  T        0
O        7.55425506       5.97293907       3.67801293  T        0
O        9.43392239      10.25060952       3.96047719  T        0
O        9.61091734       4.30340114       3.65910344  T        0
O       13.54309952       7.09886478       5.07533570  T        0
O        5.60281514       7.10269607       5.16127569  T        0
O        5.51556563       7.27656141       2.48055355  T        0
O       13.53656824       7.00867808       2.35690311  T        0
O       14.53647579       6.96480827      -0.13887826  T        0
O        4.89150002       7.38615842      -0.06541498  T        0
Si       5.98913065       2.78899731       1.44528348  T        0
Si      15.86923486      10.03043284       5.43459269  T        0
Si      13.00077802       2.79678657       1.43199848  T        0
Si      15.81777427       4.15281408       5.40828234  T        0
Si      12.93799898      11.51872182       1.43238435  T        0
Si       3.18805710       4.26144827       5.33673473  T        0
Si      13.08838262      11.54985639       6.15317262  T        0
Si       3.18104820       4.29835453       2.12613075  T        0
Si      15.86839975       4.16717848       2.18278988  T        0
Si      12.93820673       2.77841678       6.10202594  T        0
Si       5.94631524       2.81428294       6.12987593  T        0
Si      15.76866105      10.05531319       2.18614509  T        0
Al      11.16942464      10.20907397       3.83494740  T        0
Si       7.83872416      10.17727615       3.71148578  T        0
Si      11.25173516       4.19981726       3.76392751  T        0
Si      17.55162607      11.49001257      -0.03030125  T        0
Al       7.78496124       4.14664549       3.85630469  T        0
Si      14.82772168       7.10241670       6.09519386  T        0
Si       4.22921582       7.20426424       6.05929491  T        0
Si       4.24338063       7.24431886       1.44925689  T        0
Si      14.90155856       7.07284291       1.43973069  T        0
Si      12.65056218       7.12990191       3.72572440  T        0
Si       6.48175382       7.24092784       3.79412089  T        0
O       19.14971724      11.17069218      -0.24559758  T        0
O        5.84617710       3.28289270       7.71560004  T        0
O       12.38736539       3.16864651       7.60180902  T        0
O       12.42641690      11.09374122       7.59378635  T        0
O       14.17476491       7.10321165       7.60699149  T        0
O        4.67326274       7.56446468       7.60999056  T        0
O       15.66506567       8.44792894      -2.06823154  T        0
O       15.95392277       5.84695227      -2.13866905  T        0
O       12.96562254      13.03286777      -2.45650080  T        0
O       16.78065488      10.78843719      -1.29927772  T        0
O       11.58049493      10.80451000      -5.30293639  T        0
O       11.64500017      10.78283964      -2.57698799  T        0
O       16.31501883      10.37940969      -3.85284768  T        0
O       14.25789939      10.68511034      -2.12329468  T        0
O       11.82892054       8.47913878      -3.94885509  T        0
O       11.34797893       5.87686466      -3.88091531  T        0
O        9.51069533       9.74547013      -3.96151908  T        0
O       13.51914872       6.90470756      -2.61150892  T        0
O       13.41539485       6.74444197      -5.32130899  T        0
Si      15.74547516      10.06293182      -2.33397029  T        0
Si      12.89135263      11.51126603      -1.80554931  T        0
Si      11.13960855       9.97347255      -3.93011272  T        0
Si      14.88674722       7.04907410      -1.73459690  T        0
Si      12.54596777       7.00963049      -3.93015558  T        0
H        5.61083456       0.52083913       2.07985367  F        0
H       13.50938118       0.51971906       2.07492992  F        0
H        3.36611374       9.37433505       5.45534891  F        0
H       13.50958039      13.75682243       2.07498241  F        0
H       13.51084140      13.75504172       5.44776650  F        0
H       13.50975252       0.52161770       5.44778410  F        0
H        3.36626427       9.38386245       2.08012257  F        0
H        5.62509051       0.52255101       5.44942550  F        0
H       17.28974254      11.12548174       7.01862795  F        0
H        6.67686405      11.12256578       1.90156970  F        0
H       17.28979000       3.14560285       7.02339196  F        0
H        1.81954193       3.15353441       6.98813474  F        0
H        1.83183800       3.14857954       0.53722786  F        0
H        6.67998430      11.11604137       5.63469228  F        0
H       17.29134854       3.14797220       0.53999843  F        0
H        6.35952436       2.97904956      -0.93427223  F        0
H       12.76076393       2.97683097      -0.93375646  F        0
H       16.56020813      13.76127004      -0.00066979  F        0
H        4.51175007       7.13509558      -0.92932085  F        0
H       20.08739461      11.34211663       0.00099186  F        0
H        6.35949513       2.97597070       8.47938261  F        0
H       12.76321398       2.97604733       8.47995589  F        0
H       12.76333233      11.30075111       8.47967776  F        0
H       14.61405599       7.13800201       8.47661577  F        0
H        4.50898861       7.14016697       8.47499567  F        0
H       15.75636517       4.89339805      -2.09021006  F        0
H       13.51084140      13.75504172      -2.09873350  F        0
H       12.44599272      11.12072140      -5.64644730  F        0
H       15.92569105      10.11584057      -4.70878458  F        0
H       11.31540413       4.90177526      -3.78397907  F        0
H        8.59739021      10.07362933      -3.78432063  F        0
H       14.25080708       7.13791561      -5.64139813  F        0
Fe       9.43376843       6.37197989       2.86618838  T        0
Fe      11.37719955       8.71392755       1.41580170  T        1
O        9.99938213       7.55521156       1.55507868  T        2
O       12.28098942       8.77398206       0.00630886  T        3
