132
Lattice="20.102 0.0 0.0 0.0 19.731 0.0 0.0 0.0 13.253" Properties=species:S:1:pos:R:3:move_mask:L:1:tags:I:1 i=77 E=-3472.0240129048 regions="_JSON [\"Active\"]" n_terminators=32 energy=-885.5651245384529 pbc="F F F"
O       10.22306278       8.51678340       9.46867365  T        0
O        9.92564862      18.88692920       4.02342836  T        0
O       10.05483381      10.62083840       3.64842916  T        0
O        2.25599085      11.38304047       3.96037494  T        0
O        7.97585033       8.61546372      10.74483734  T        0
O       12.09981505      18.58607632       2.51834230  T        0
O       12.57326091      11.39310833       2.94196071  T        0
O        8.10425755       7.11974055       8.48564778  T        0
O       11.96205485      17.55027964       5.02300205  T        0
O       11.37003385      12.23641295       5.18651412  T        0
O        8.18823448       9.75246864       8.27467348  T        0
O       12.24811355      20.18633789       4.60983498  T        0
O       12.23154635       9.69119965       4.98859144  T        0
O        3.55224878      10.76360119       6.12822727  T        0
O        3.08255749       8.87284138       4.17158059  T        0
O       16.96477036      10.66577857       9.20165554  T        0
O       17.02917785      18.94200057       9.15636034  T        0
O        4.92625118      10.81390758       3.83351102  T        0
O        3.66276841      12.05324020       8.57022608  T        0
O       14.35363262      17.08333777      12.05859701  T        0
O       14.41098572      12.51979435      12.08174030  T        0
O        5.86773364      11.11056573       7.32975947  T        0
O        5.85401546      19.22682866       7.58632440  T        0
O       14.26819971       8.72652308       6.55305840  T        0
O        3.96090796       9.38504954       8.26878718  T        0
O        5.63323734      10.16546962       1.27705395  T        0
O        8.25646441      12.58717690       7.79422236  T        0
O        7.78239130      17.42300355       8.11675355  T        0
O       12.41349291       7.09034246       5.40634102  T        0
O        8.33560512      10.97937034       5.63018478  T        0
O        7.89176054      18.68530302       5.82706216  T        0
O       11.88354452       8.67685648       7.46535870  T        0
O        7.45156011      11.03938719       3.10321317  T        0
O        7.51781997      18.40884299       3.17589152  T        0
O       12.83158498       9.07632086      10.02889243  T        0
O        8.26135804       8.72809368       4.07797045  T        0
O       11.36291713      10.87613464       8.83797425  T        0
O       11.89300272      19.06645935       8.74481146  T        0
O        5.61088565      12.68630491       2.02677087  T        0
O       16.04814596      16.99922767       4.52800442  T        0
O       16.18336179      12.53451768       4.57192706  T        0
O       10.03494916      17.20733968       9.56464915  T        0
O        9.89965968      12.88526002       9.85102725  T        0
O       10.11919925       6.75071299       4.07165558  T        0
O        7.70273064      16.74287937      10.72543081  T        0
O        7.20641750      13.36839412      10.23012924  T        0
O       17.71972347      13.19667622       9.44778548  T        0
O       12.40011526       7.07601201       2.72025900  T        0
O       17.84542433      16.45151375       9.41641836  T        0
O        8.73133454      15.02713233       8.83389147  T        0
O       12.02946760       4.79237683       4.02564764  T        0
O       16.47070283      12.51444576       7.23913074  T        0
O       16.55464959      17.07287490       7.20843093  T        0
O       15.06879444      12.59682519       9.47073547  T        0
O       15.18085951      16.99058623       9.48190056  T        0
O       15.85054582      14.78463165       5.93946343  T        0
O        5.93823424       5.94300121       7.24790476  T        0
O       14.03851863      12.80378178       6.20832208  T        0
O       14.10122034      16.78713992       6.40479846  T        0
O        8.24531375       4.71528891       7.44810838  T        0
O       12.17510568      14.98702823       5.77010891  T        0
O        8.06660078       6.84071494       5.82704278  T        0
O       11.49215539      13.33999567       7.76834789  T        0
O       11.63241122      16.73114159       7.53924782  T        0
O        7.68962843       6.28435583       3.19199952  T        0
O       12.52888631      12.86892645      10.19239537  T        0
O       12.60978472      16.78629693      10.02438524  T        0
O       14.25129641      14.80795175      10.76580135  T        0
Si       8.59275277       8.51726793       9.21336412  T        0
Si      11.54982511      18.79846997       4.05172479  T        0
Si      11.58131658      10.94814202       4.17650291  T        0
Si       3.47662207      10.44348825       4.53255030  T        0
Si       4.30296437      10.86665998       7.59334427  T        0
Al       7.57208395      11.00676596       7.29492025  T        0
Si       7.45296360      18.86566558       7.38219434  T        0
Si      12.70179817       8.55717434       6.07405831  T        0
Si       8.50646333      10.32401548       4.11763831  T        0
Si       8.35503609      19.21066074       4.34079662  T        0
Si      11.58694419       9.25713329       8.96451800  T        0
Si       5.89624885      11.16290923       2.56703715  T        0
Si       8.52348805      16.61263486       9.31554856  T        0
Si       8.48262401      13.39105275       9.19451227  T        0
Si      11.72373152       6.40629066       4.07597704  T        0
Si      16.54301438      12.22301326       8.84511266  T        0
Si      16.63401495      17.37654289       8.81853391  T        0
Si      15.60511824      13.15084612       5.99396366  T        0
Si      15.66082875      16.39919633       6.01181824  T        0
Si       7.56795321       6.20341916       7.25320968  T        0
Al      12.39987196      13.28731334       6.20588393  T        0
Si      12.53763321      16.51878086       6.11661584  T        0
Si       8.55217650       7.13834197       4.30995974  T        0
Si      11.34071569      12.46733323       9.16520804  T        0
Si      11.55236844      17.48582669       9.02255994  T        0
Si      14.07424044      13.18736689      10.61600585  T        0
Si      14.11971193      16.41635823      10.57310200  T        0
O        8.39978236      20.05988907       8.01274242  T        0
O        8.07005582      20.83328417       4.35630850  T        0
H        1.81269882      11.30123319       3.09859993  F        0
H        7.07153747       8.87866318      10.98534327  F        0
H       13.03074803      18.74401529       2.26762503  F        0
H       13.03074804      10.85204106       2.26762503  F        0
H       12.34310542      20.30287261       5.56688324  F        0
H        3.60112680       8.06005012       4.30646574  F        0
H       16.64303307       9.81912404       8.84117322  F        0
H       16.64304187      19.77694965       8.84122497  F        0
H        4.03182275      12.92715973       8.82439874  F        0
H       14.40563884      18.04556895      12.19637069  F        0
H       14.40563885      11.55048737      12.19637067  F        0
H        5.06295559      18.75104696       7.26028496  F        0
H       15.03932990       8.88569483       5.99268334  F        0
H        4.11249823       9.08086468       9.18193973  F        0
H        5.72719027       9.20254625       1.33756862  F        0
H        6.55301950      18.28668004       3.13509397  F        0
H       13.54926599       8.42132791      10.11787432  F        0
H       11.52310955      19.83515307       9.21116341  F        0
H        5.53537813      12.95496052       1.09262639  F        0
H       15.87290964      17.87210703       4.12309272  F        0
H       15.87290964      11.72394929       4.12309273  F        0
H        6.74596320      16.92620537      10.74076342  F        0
H        6.74596321      12.66985099      10.74076342  F        0
H       18.05303808      13.25020103      10.35989921  F        0
H       13.35632228       7.06085325       2.51220488  F        0
H       18.05303809      16.34585533      10.35989921  F        0
H       11.61525895       4.01919395       4.45233654  F        0
H        5.18772305       6.48136951       6.94399129  F        0
H        7.92514400       4.01763560       6.85279547  F        0
H        6.78202892       6.52695113       2.93525138  F        0
H        8.32625906      20.60985804       8.81306681  F        0
H        8.66651872      21.47399316       3.93953912  F        0
Fe      10.27551012      15.09022532       7.09956814  T        0
Fe       9.30494294      12.78350121       5.71304602  T        0
O        9.17982136      14.60110782       5.71473932  T        0
