138
Lattice="20.102 0.0 0.0 0.0 19.731 0.0 0.0 0.0 13.253" Properties=species:S:1:pos:R:3:move_mask:L:1:tags:I:1 i=77 E=-3472.0240129048 regions="_JSON [\"Active\"]" n_terminators=34 energy=-923.127673392167 pbc="F F F"
O       10.06674467       8.40292828       9.28502045  T        0
O        9.92544040      18.92381308       4.01949006  T        0
O        9.99821598      11.20407760       4.04670037  T        0
O        2.26211706      11.37704082       3.96312055  T        0
O        7.77987704       8.30182259      10.65336597  T        0
O       12.09384337      18.59087700       2.49997201  T        0
O       12.18672726      11.19360795       2.60861791  T        0
O        7.88231334       7.30845346       8.18307202  T        0
O       11.89517509      17.43338187       4.93610641  T        0
O       12.00632498      12.63519155       4.88562083  T        0
O        8.00057134       9.98317065       8.61335886  T        0
O       12.31241355      20.10039610       4.62084564  T        0
O       12.22483592       9.97863880       5.03357809  T        0
O        3.71515514      10.79237363       6.08875973  T        0
O        3.06233598       8.86687014       4.21973571  T        0
O       17.12395729      10.63557594       9.05645130  T        0
O       17.09183909      18.95753994       9.11064015  T        0
O        4.89059524      10.77653629       3.69724033  T        0
O        3.63318681      12.08693858       8.51125312  T        0
O       14.36017386      17.08231370      12.07279438  T        0
O       14.40412972      12.51967764      12.08687282  T        0
O        5.92953834      11.19812928       7.50853339  T        0
O        5.85905121      19.21137509       7.59798846  T        0
O       14.22537818       8.91608566       6.51678618  T        0
O        4.00886942       9.40499072       8.26691159  T        0
O        6.41329571       9.79034629       1.67838826  T        0
O        8.14885654      12.56081242       7.87942895  T        0
O        7.81186968      17.41166622       8.07518207  T        0
O       12.46860699       7.36973790       5.10239198  T        0
O        8.10268332      10.65946876       6.02180059  T        0
O        7.87501474      18.69906160       5.81064175  T        0
O       11.78491921       8.65310375       7.33102316  T        0
O        7.47398806      11.38732061       3.39444352  T        0
O        7.51658126      18.42395477       3.15704816  T        0
O       12.61328896       8.23987569       9.89751046  T        0
O        8.53690213       8.61274781       3.94322093  T        0
O       11.55515186      10.63244721       9.07274270  T        0
O       11.94504599      19.02195394       9.53404321  T        0
O        5.62196007      12.37427624       1.68805823  T        0
O       16.12707735      17.02520715       4.53496610  T        0
O       15.69401601      12.57612833       4.57002281  T        0
O       10.05360982      17.04659566       9.53841869  T        0
O        9.83208086      12.85811233       9.87225620  T        0
O       10.22317384       6.53957636       3.74366806  T        0
O        7.68238605      16.65640235      10.65651331  T        0
O        7.10798712      13.43340853      10.26707691  T        0
O       17.87186941      13.12802580       9.40783942  T        0
O       12.56755629       6.50061971       2.58282531  T        0
O       17.82210067      16.43923456       9.41992950  T        0
O        8.61198602      14.95202365       8.71601606  T        0
O       12.08527714       4.83239413       4.70048681  T        0
O       16.46709840      12.51546307       7.21098069  T        0
O       16.52957800      17.07930468       7.21916152  T        0
O       15.23298951      12.52416415       9.55749208  T        0
O       15.17410784      17.08562480       9.50111679  T        0
O        5.56599906      14.83660305       1.04216279  T        0
O       15.87632456      14.81250831       5.92158242  T        0
O        5.98046223       6.59116076       6.39492192  T        0
O        3.85460725      13.06660952      -0.26166211  T        0
O       13.96103650      13.11435261       6.60724335  T        0
O       14.09033640      16.79123526       6.29799365  T        0
O        7.72218283       4.74745472       7.47117706  T        0
O       12.11887645      15.02352197       5.98242824  T        0
O        8.47640397       6.59078984       5.67703222  T        0
O       11.33345026      13.06392114       7.45956575  T        0
O       11.76425513      17.16282761       7.54831799  T        0
O        7.68208736       6.19852367       3.11160663  T        0
O       12.68960234      13.07716568      10.01816847  T        0
O       12.64230989      16.56883464      10.01780805  T        0
O       14.52603789      14.81377637      10.79134368  T        0
Si       8.45034576       8.49432688       9.15797626  T        0
Si      11.54684009      18.75401708       4.04231299  T        0
Si      11.64174701      11.21405962       4.15942125  T        0
Si       3.50155009      10.43315073       4.50401781  T        0
Si       4.33227460      10.88791630       7.60839551  T        0
Si       7.54821399      11.04475686       7.46555491  T        0
Si       7.45991388      18.85916519       7.37591085  T        0
Si      12.67348557       8.71846424       5.98910663  T        0
Al       8.51807151      10.24264998       4.39465457  T        0
Si       8.34916775      19.22324310       4.33080251  T        0
Si      11.54246709       9.03747005       8.92028381  T        0
Si       6.05075537      11.10012552       2.60417784  T        0
Si       8.53051580      16.54835593       9.25170377  T        0
Si       8.43689754      13.38587259       9.31305861  T        0
Si      11.80903859       6.31430801       4.03856810  T        0
Si      16.64473042      12.19969548       8.82623248  T        0
Si      16.63199863      17.39765131       8.82533116  T        0
Si       5.35149866      13.34093974       0.38974535  T        0
Si      15.52657558      13.22311861       6.07725499  T        0
Si      15.66031621      16.43004896       5.99695461  T        0
Si       7.51621761       6.30265148       6.94954683  T        0
Si      12.41269470      13.43060314       6.25109478  T        0
Si      12.48511323      16.60601770       6.19637521  T        0
Si       8.70610192       7.02054955       4.11514324  T        0
Al      11.38481694      12.34462682       9.17949987  T        0
Si      11.59637960      17.45648760       9.15148822  T        0
Si      14.17132376      13.21763303      10.60247840  T        0
Si      14.17503825      16.38754669      10.59208445  T        0
O        8.40325097      20.05697653       8.01325943  T        0
O        8.05103807      20.84414036       4.34231846  T        0
O        6.42783626      13.06625372      -0.82879907  T        0
H        1.81269882      11.30123319       3.09859993  F        0
H        7.07153747       8.87866318      10.98534327  F        0
H       13.03074803      18.74401529       2.26762503  F        0
H       13.03074804      10.85204106       2.26762503  F        0
H       12.34310542      20.30287261       5.56688324  F        0
H        3.60112680       8.06005012       4.30646574  F        0
H       16.64303307       9.81912404       8.84117322  F        0
H       16.64304187      19.77694965       8.84122497  F        0
H        4.03182275      12.92715973       8.82439874  F        0
H       14.40563884      18.04556895      12.19637069  F        0
H       14.40563885      11.55048737      12.19637067  F        0
H        5.06295559      18.75104696       7.26028496  F        0
H       15.03932990       8.88569483       5.99268334  F        0
H        4.11249823       9.08086468       9.18193973  F        0
H        5.72719027       9.20254625       1.33756862  F        0
H        6.55301950      18.28668004       3.13509397  F        0
H       13.54926599       8.42132791      10.11787432  F        0
H       11.52310955      19.83515307       9.21116341  F        0
H       15.87290964      17.87210703       4.12309272  F        0
H       15.87290964      11.72394929       4.12309273  F        0
H        6.74596320      16.92620537      10.74076342  F        0
H        6.74596321      12.66985099      10.74076342  F        0
H       18.05303808      13.25020103      10.35989921  F        0
H       13.35632228       7.06085325       2.51220488  F        0
H       18.05303809      16.34585533      10.35989921  F        0
H       11.61525895       4.01919395       4.45233654  F        0
H        5.67587981      15.71242072       0.63388066  F        0
H        5.18772305       6.48136951       6.94399129  F        0
H        2.98936131      13.24709329       0.14601228  F        0
H        7.92514400       4.01763560       6.85279547  F        0
H        6.78202892       6.52695113       2.93525138  F        0
H        8.32625906      20.60985804       8.81306681  F        0
H        8.66651872      21.47399316       3.93953912  F        0
H        6.36643797      12.40218664      -1.54340896  F        0
Fe       8.69536485      12.88989972       4.02172855  T        0
Fe       9.57908155      13.99091877       6.81170693  T        1
O        8.90907437      14.29948999       5.12782881  T        2
