133
Lattice="20.102 0.0 0.0 0.0 19.731 0.0 0.0 0.0 13.253" Properties=species:S:1:pos:R:3:move_mask:L:1:tags:I:1 i=77 E=-3472.0240129048 regions="_JSON [\"Active\"]" n_terminators=32 energy=-896.225453783392 pbc="F F F"
O        9.95347607       8.47729718       9.23637984  T        0
O        7.63963388       8.50801004      10.52405235  T        0
O       17.94116171       8.37669156       9.24396295  T        0
O        7.90978610       6.91007436       8.41047316  T        0
O       11.97417777      16.84370588       4.66825480  T        0
O       11.76222843      12.76537434       4.70890164  T        0
O        7.68892623       9.58099976       8.16899620  T        0
O        6.65073304       8.80127582      12.87178710  T        0
O       16.73038256       8.87811565       7.00068509  T        0
O        6.16187062      19.04546984      10.88331843  T        0
O        6.10208515      10.70014516      10.97187251  T        0
O       16.59421087      10.68980519       9.04584088  T        0
O       16.42942737      18.97692487       8.79806820  T        0
O        4.93965345       8.32710130      10.85640244  T        0
O       15.21734349       8.39007216       9.17902733  T        0
O       14.22782706      17.42882331      12.06396107  T        0
O       13.98165521      12.12096864      11.88201614  T        0
O        5.85967984      10.97197111       6.71141161  T        0
O        5.79339327      18.99654008       6.66470666  T        0
O       16.13969565      19.06339823      13.17524181  T        0
O       16.08514675      10.95622401      13.12651600  T        0
O       14.35440140      19.96736482      11.34023960  T        0
O       14.48036597       9.58216779      11.37941248  T        0
O        8.12059449      12.13842167       7.62999579  T        0
O        7.91708008      17.49080172       7.50660703  T        0
O        8.25038482      10.16977857       5.75231960  T        0
O        8.18665889      19.52402481       5.67367431  T        0
O       11.52370609       8.81379414       7.22581479  T        0
O       12.63508008       8.42397564       9.72807353  T        0
O       11.38437205      10.67925819       9.24138531  T        0
O       11.40188457      18.92720576       9.25861591  T        0
O       16.33916433      17.18919466       4.63765449  T        0
O       14.23116087       6.91110996      11.24947127  T        0
O       16.31913131      12.45026509       4.58946066  T        0
O       10.04316591      16.49958055       9.21405394  T        0
O       10.02605700      13.09861132       9.25525671  T        0
O        7.25542446      16.72028985      10.24557326  T        0
O        7.51759153      12.75758466      10.18497437  T        0
O       17.72127827      13.14049869       9.45375960  T        0
O       17.95002088      17.03628968       9.67967450  T        0
O        8.12843747      14.71063994       8.42801876  T        0
O        6.30009926      17.26151176      12.75407232  T        0
O        6.53758081      12.80709362      12.64274663  T        0
O       16.43141126      12.67350786       7.26058739  T        0
O       16.66707433      16.83027981       7.26977802  T        0
O        4.57040082      16.88056849      10.75653061  T        0
O        4.82253598      13.07280125      10.66758928  T        0
O       15.01515549      12.75427129       9.50705225  T        0
O       15.25873128      16.66401763       9.48592936  T        0
O       15.89595294      14.79787326       5.72777267  T        0
O       14.10150898      12.80548417       6.04079428  T        0
O       14.19470959      16.78890032       6.20996732  T        0
O       12.34826949      14.82418184       6.28329973  T        0
O       11.83899662      12.46402629       7.35203426  T        0
O       11.84658260      17.20543669       7.32709890  T        0
O       12.39870119      13.12336200       9.91059095  T        0
O       12.42236382      16.45865942       9.87034238  T        0
O       14.03133656      14.68753367      11.16896625  T        0
Si       8.32411654       8.36437960       9.05297820  T        0
Si       6.32837344       9.10541238      11.29635596  T        0
Si      16.59498065       9.09818386       8.62464622  T        0
Si      14.60026066      18.91656276      12.56765249  T        0
Si      14.56721928      10.72688415      12.52170202  T        0
Si       7.45619862      10.74185675       7.06629688  T        0
Si       7.41759021      18.94874085       7.01825931  T        0
Si      11.41727383       9.06632869       8.84611508  T        0
Si      14.13345193       8.32163655      10.40781549  T        0
Al       8.22830383      16.41992114       8.83839728  T        0
Si       8.34596018      13.19746410       8.85193403  T        0
Si       6.09936759      17.42683863      11.12285308  T        0
Si       6.22481594      12.32432612      11.10248660  T        0
Si      16.44907391      12.30444353       8.84168171  T        0
Si      16.55724541      17.34775948       8.83660894  T        0
Si      15.69245653      13.19867476       5.90804381  T        0
Si      15.77903509      16.41102457       5.97460510  T        0
Si      12.53698467      13.22945087       6.07871184  T        0
Si      12.61397296      16.42698393       6.11978517  T        0
Si      11.41678158      12.23575295       8.88893646  T        0
Si      11.42829966      17.36729001       8.89374428  T        0
Si      13.94882846      13.18758895      10.65488528  T        0
Al      14.06714610      16.38009114      10.69666525  T        0
O        9.99485283      21.14980926       9.26611023  T        0
O        7.67744872      21.20813049      10.52950947  T        0
O       18.00195898      21.15907751       9.22024966  T        0
O        8.01239271      22.75313358       8.40517635  T        0
O        7.77820857      20.07141929       8.15012173  T        0
O        6.61340526      20.92545913      12.86759336  T        0
O       16.66342593      20.98707517       6.99604888  T        0
O        4.97513590      21.40602154      10.79345136  T        0
O       15.29441119      21.32135741       9.29148596  T        0
O       11.48896557      20.72605203       7.19883520  T        0
O       12.67436072      21.20577367       9.63460584  T        0
O       14.10344507      22.67185677      11.31338282  T        0
Si       8.37011895      21.28388582       9.05565463  T        0
Si       6.34777404      20.61682494      11.27683227  T        0
Si      16.58480783      20.58534132       8.59715714  T        0
Si      11.42825703      20.52863399       8.83307223  T        0
Si      14.11456494      21.28347012      10.42556133  T        0
O       13.60714860      19.47323359      13.76245769  T        0
O       13.58842522      10.19751011      13.72465710  T        0
H       18.28958667       8.42947104      10.15436836  F        0
H        7.84356088       6.72376138       7.45668423  F        0
H       11.77741499      17.76721957       4.45015374  F        0
H       11.77741500      11.82883679       4.45015372  F        0
H        6.01931354       8.91222751      13.59787507  F        0
H       16.07044731       8.91222497       6.28158540  F        0
H        4.52133035       8.52501985      10.00226603  F        0
H        5.06295559      10.84500939       7.26028495  F        0
H        5.06295559      18.75104696       7.26028496  F        0
H       16.97340650      18.78964577      12.75613404  F        0
H       16.97340651      10.80641058      12.75613404  F        0
H        8.50665683      10.58475679       4.91774357  F        0
H        8.50665683      19.01129957       4.91774358  F        0
H       12.20788617       8.97653229       6.55602501  F        0
H       15.87290964      17.87210703       4.12309272  F        0
H       14.56690736       6.77574372      12.16034191  F        0
H       15.87290964      11.72394929       4.12309273  F        0
H       18.05303808      13.25020103      10.35989921  F        0
H       18.05303809      16.34585533      10.35989921  F        0
H        5.86807409      16.61444052      13.33116226  F        0
H        5.86807409      12.98161584      13.33116226  F        0
H        4.26454119      16.60174699       9.87579966  F        0
H        4.26454119      12.99430937       9.87579967  F        0
H       18.28958667      21.16688107      10.15436837  F        0
H        7.84356087      22.87259074       7.45668424  F        0
H        6.01931354      20.68412461      13.59787507  F        0
H       16.07044730      20.68412712       6.28158542  F        0
H        4.52133035      21.07133226      10.00226603  F        0
H       12.20788616      20.61981982       6.55602502  F        0
H       14.56690736      22.82060840      12.16034191  F        0
H       13.51650675      19.01504758      14.61047976  F        0
H       13.51650676      10.58100877      14.61047976  F        0
Fe      11.13447603      14.86249376       9.83671698  T        1
