139
Lattice="20.102 0.0 0.0 0.0 19.731 0.0 0.0 0.0 13.253" Properties=species:S:1:pos:R:3:move_mask:L:1:tags:I:1 i=77 E=-3472.0240129048 regions="_JSON [\"Active\"]" n_terminators=34 energy=-934.7917175265221 pbc="F F F"
O       10.11434445       8.87667049       9.20671233  T        0
O       10.24893102      10.93954973       3.64633191  T        0
O        7.97611640       8.63361343      10.71716378  T        0
O       12.72654041      11.62018344       2.98229068  T        0
O        7.62962174       2.57541162       8.50694235  T        0
O        8.28419600       7.14662443       8.45452534  T        0
O       11.83385725      12.39494646       5.37228879  T        0
O        7.69417015       9.74115749       8.30529026  T        0
O       12.16039462       9.73796617       4.84489531  T        0
O       16.58794181       8.40305915       7.36522023  T        0
O       13.93606921      11.15765084       0.55041545  T        0
O       12.96890998       9.20071689       2.09223412  T        0
O        4.43802193      10.56398802       3.53729363  T        0
O       15.17158539      10.64686082       2.86739364  T        0
O        6.28428779       2.42710986       1.27534859  T        0
O        5.57738971       7.30430707       1.53064240  T        0
O       16.39271198       7.05740312       5.16207623  T        0
O        5.85365113      10.88761847       6.69468906  T        0
O        3.83224742       8.57187279      -0.06605382  T        0
O       14.29627531       8.59904870       5.97720074  T        0
O        5.66836249       9.96530644       1.35105680  T        0
O       16.47667345       9.74016246       5.00436324  T        0
O        7.77305248      12.34475179       7.95249850  T        0
O       12.10865443       7.14212851       5.44137139  T        0
O       12.28989347       2.54741910       5.58320848  T        0
O        8.36641722      10.72104063       5.89882281  T        0
O       12.08807614       8.93839011       7.40661830  T        0
O        7.18325134      10.91338065       3.30053766  T        0
O       12.58500873       8.55799105      10.04641672  T        0
O       17.69627385      11.46253090       3.31929139  T        0
O        9.10765848       8.67779511       3.88853384  T        0
O        8.19341250       0.76046720       3.84661948  T        0
O       11.75843849      10.95167735       9.06602240  T        0
O        5.45095801      12.57304477       1.99547430  T        0
O       15.81561591      12.32016778       4.90035420  T        0
O        9.83221722      12.77542532       9.62725380  T        0
O       10.13540426       2.69347939       3.91499918  T        0
O        9.87472849       6.21910025       4.28424994  T        0
O        7.33017079      13.38292869      10.41964095  T        0
O       12.50372025       2.45788971       2.83301728  T        0
O       11.96198103       7.00283956       2.82014028  T        0
O        8.48731561      14.80881056       8.43598507  T        0
O       11.98776229       4.69253910       4.24658630  T        0
O       16.60884041      12.99833565       7.42378819  T        0
O       13.89511287       6.96635021       0.40542462  T        0
O        4.94056491       6.55271932       4.11784376  T        0
O        4.79591038       2.42825784       3.39707653  T        0
O       14.94138125       7.23655305       3.00425656  T        0
O       15.91265647      14.84148683       5.59245936  T        0
O        5.89169144       6.63998264       7.58907957  T        0
O        5.96021684       3.08678432       6.44318858  T        0
O       14.05292434      13.14301839       6.68690962  T        0
O        7.88376042       4.85897763       7.12892694  T        0
O       12.25664741      14.95595129       5.79896051  T        0
O        7.89856794       7.18880204       5.81939943  T        0
O        8.46209548       2.51608876       5.93710086  T        0
O       11.69470063      13.31579466       7.84256674  T        0
O        7.47224280       6.66211854       3.24566558  T        0
O        7.48684836       3.20232928       3.55530242  T        0
O       12.35105189      13.17760123      10.43086007  T        0
O       17.60086143       6.52815373       2.78489956  T        0
O        5.77701206       4.78540616       2.40128611  T        0
O       15.66533086       4.84581108       3.65679270  T        0
Si       8.50477785       8.61423178       9.15714566  T        0
Si      11.73803694      11.26572950       4.24138983  T        0
Si      13.73593140      10.66384390       2.09024512  T        0
Si       5.36845183       8.59569333       0.54142067  T        0
Si      15.92729167       8.45768850       5.85903595  T        0
Si       7.43746995      10.92631402       7.19798415  T        0
Si      12.68304876       8.58956418       5.95064144  T        0
Al       8.57903447      10.42020769       4.20649865  T        0
Si      11.64895548       9.32927350       8.94004261  T        0
Si       5.72781725      11.04337136       2.58792423  T        0
Si      16.27507306      11.02885481       4.01868494  T        0
Si       8.35263912      13.32026223       9.12244101  T        0
Si      11.71049251       3.08015141       4.13585778  T        0
Si      11.50500238       6.22778719       4.20902320  T        0
Al      13.55546219       7.48395919       2.00510267  T        0
Si      15.59569098      13.33436900       6.16175688  T        0
Si       7.48530667       6.44188343       7.22500989  T        0
Si       7.50054495       3.26935620       7.02050519  T        0
Si      12.47043320      13.46083156       6.43515501  T        0
Si       8.55338157       7.17719522       4.33159002  T        0
Si       8.59758737       2.28040978       4.31282583  T        0
Si      11.39872979      12.53350339       9.24758386  T        0
Si       5.92735063       6.34988740       2.80161461  T        0
Si       6.07512308       3.20472912       2.70812315  T        0
Si      16.17655694       6.41964021       3.64306680  T        0
O        7.99907135       9.10348326      -2.86377661  T        0
O        6.31037110       8.48641841      -0.79829244  T        0
O        6.27758249      10.87630724      -1.78813956  T        0
O        5.45473756       8.75798157      -3.39307267  T        0
O       15.16650353       9.17293254      -4.05475821  T        0
O       14.73822631      12.46166854      -1.64385487  T        0
O       16.16409549      10.33945783      -0.74802565  T        0
O       13.85991713       9.87288129      -1.83925534  T        0
O       12.67720673       8.22316613      -3.59577748  T        0
O       14.65452872       7.28346145      -2.11542435  T        0
O       14.16680324       4.79841800      -1.16483738  T        0
O       16.35086246       5.95674388      -0.43890000  T        0
Si       6.49027348       9.29568570      -2.22152301  T        0
Si      14.65363283      10.97575782      -0.93326671  T        0
Si      14.12075659       8.61819644      -2.89700196  T        0
Si      14.77119124       6.29722489      -0.78678941  T        0
H        7.07153747       8.87866318      10.98534327  F        0
H        8.32487049       1.96348467       8.80281458  F        0
H       16.63692148       9.14969546       7.98396390  F        0
H        4.05829635      10.79936776       4.41071281  F        0
H        5.69664664       1.68513527       1.05659762  F        0
H        5.06295559      10.84500939       7.26028495  F        0
H        3.12887899       8.92429365       0.49683426  F        0
H       12.40451338       1.61243810       5.80455660  F        0
H       13.54926599       8.42132791      10.11787432  F        0
H       18.17502404      10.93300163       2.66186473  F        0
H        8.57917594      -0.10444883       4.04180490  F        0
H        5.53537813      12.95496052       1.09262639  F        0
H        6.74596321      12.66985099      10.74076342  F        0
H       13.35632229       2.80449888       2.51220488  F        0
H        8.48702655      15.71151028       8.80063176  F        0
H       16.41758072      12.40218664       8.16986141  F        0
H        4.34567170       7.30371036       4.24836906  F        0
H        4.34567169       2.56164175       4.24836906  F        0
H       15.72702255      15.71242072       5.99260349  F        0
H        5.18772305       6.48136951       6.94399129  F        0
H        5.18772305       3.38398261       6.94399129  F        0
H       12.17714149      15.71306863       6.40017283  F        0
H       13.32025657      13.20375310      10.31771692  F        0
H       18.37141860       7.12308619       2.89672377  F        0
H       16.04230867       4.00312851       3.96597142  F        0
H        8.23844393       8.42947104      -3.52791591  F        0
H        6.45001595      11.67065412      -2.32005011  F        0
H        4.52133035       8.52501985      -3.25073397  F        0
H       16.04398914       8.93133647      -4.41074452  F        0
H       14.08296548      12.92715973      -2.19794627  F        0
H       16.97340651      10.80641058      -0.49686596  F        0
H       11.97840421       8.79770260      -3.96465112  F        0
H       14.42640568       4.01828351      -0.63391236  F        0
H       17.11292418       6.48361095      -0.14604398  F        0
Fe      11.05004251       8.89791421       3.08695516  T        1
