142
Lattice="24.397 0.0 0.0 0.0 24.397 0.0 0.0 0.0 24.397" Properties=species:S:1:pos:R:3:move_mask:L:1:tags:I:1 i=41 E=-6943.8331748197 regions="_JSON [\"Active\"]" n_terminators=34 energy=-950.5529361576217 pbc="F F F"
O       21.63765040       2.62181393       0.11363659  T        0
O       21.89874444       6.16950894       3.52694037  T        0
O       15.56372900       9.68354491       6.24521807  T        0
O       21.00818430      12.46147842       3.51927669  T        0
O       21.00652887       3.55234247      12.48866969  T        0
O       15.53384708       6.31975911       9.75617503  T        0
O       21.87609326      -0.08180063       2.56198778  T        0
O       18.40308575       9.65737437       3.32563131  T        0
O       21.81177646       3.56967637       5.87830378  T        0
O       18.35914034       3.30061030       9.62409433  T        0
O       23.74969244       1.69744398       1.80048526  T        0
O       22.82324088       5.38430558       7.98604668  T        0
O       22.66225936       8.00903526       5.33975987  T        0
O       17.61609641      10.55869781       7.84786133  T        0
O       20.08318640      10.60132625       5.23353371  T        0
O       23.70807510       4.27242022       4.18850023  T        0
O       17.65780525       7.89120635      10.52188044  T        0
O       20.04462761       5.19118021      10.59284021  T        0
O       20.85401631       6.00493537       5.84542020  T        0
O       18.14117121       8.90925422       5.92625131  T        0
O       21.99899284      12.32495056       6.07404161  T        0
O       20.96006181       0.02796475       0.03868395  T        0
O       24.33555095       2.68714279       6.28361236  T        0
O       24.40463419       6.30256672       2.57908074  T        0
O       18.07800816       5.90199617       8.93694889  T        0
O       21.96682677       6.10722104      12.27969469  T        0
O       22.67512317       4.42216957       1.72532010  T        0
O       22.64016815       4.38543285      10.48724091  T        0
O       20.16393725       8.07619060       4.35449014  T        0
O       16.64427959       8.00669657       8.00486341  T        0
O       22.64492639      10.49967041       4.36922385  T        0
O       22.83554571       1.71486386       4.30266901  T        0
O       20.07155849       4.39521619       8.01945971  T        0
Al      23.28984786       3.01045104       0.77895637  T        0
Si      23.65196935       4.88308534       9.28619533  T        0
Si      21.40622180       7.12946623       4.79851059  T        0
Si      16.97506588       9.28159954       7.01863536  T        0
Si      21.39804233      11.48911702       4.79680078  T        0
Si      23.21881072       0.77601691       3.00657722  T        0
Si      19.18053188       9.32573147       4.73951194  T        0
Al      21.44310306       4.86043841       7.10533847  T        0
Si      23.61001323       9.28008633       4.87474995  T        0
Si      23.20752913       3.03505567       5.16894639  T        0
Si      19.15399899       4.71212751       9.29046196  T        0
Si      23.21065445       5.28571914       3.00064499  T        0
Si      21.38196348       4.80331172      11.46553226  T        0
Si      16.96615192       7.02422853       9.29873793  T        0
O       24.62305147       3.62888181       8.80304813  T        0
O       24.58666729       8.76636572       3.65706357  T        0
O       26.29485595       6.73127606       4.27174493  T        0
O       26.34567131       4.21761604       6.72811640  T        0
O       24.48922254       9.83220050       6.14672408  T        0
O       24.60495575       6.08032624       9.91293821  T        0
O       26.33145790       8.06942897       1.84536859  T        0
O       26.22533992       1.76558750       8.01190836  T        0
Si      25.42639448       7.47591909       3.08436296  T        0
Si      25.39715541       3.08439335       7.47057495  T        0
O       24.70968114       2.37919473      -2.78707078  T        0
O       26.29181193       1.83389608      -0.65159819  T        0
O       24.30006784      -0.20488129      -3.48393450  T        0
O       26.47831765       4.19856821      -2.05394968  T        0
Si      25.47048346       3.02302110      -1.46137504  T        0
O       24.61319483      -2.70669932       2.41741671  T        0
O       26.30812903      -0.64380890       1.85185263  T        0
O       24.45745527      -3.71709610      -0.07833425  T        0
O       26.33929059      -1.99111328       4.26066850  T        0
Si      25.42234302      -1.40637728       3.01711380  T        0
O       18.09586230       2.46185363      -3.58930137  T        0
O       20.83496572       2.39899665      -6.26505799  T        0
O       14.84846835       6.46310852      -3.72135721  T        0
O       20.04275372       0.77546513      -4.32171659  T        0
O       22.63628151       1.03220115      -1.75586346  T        0
O       13.61819139       4.50205071      -4.97466687  T        0
O       18.86876503       1.86622378      -8.07461722  T        0
O       16.37010178       1.77966015      -5.56463207  T        0
O       24.41470070       3.58323254      -0.38719277  T        0
O       18.22088574      -0.00333261      -2.44778373  T        0
O       21.90170679      -0.10569412      -6.09183721  T        0
O       15.51192054       5.97273181      -6.30654149  T        0
O       18.34401236       3.44939446      -6.07603565  T        0
O       20.02460182       1.72653469      -1.82661362  T        0
O       22.59414413       1.65163095      -4.32809815  T        0
O       20.16339732       4.30444682      -7.91796904  T        0
O       16.29820547       4.25349170      -4.49442428  T        0
Si      19.08152702       1.24574431      -3.07429061  T        0
Si      21.32866407       1.19199308      -5.26227639  T        0
Si      23.58220077       1.22507981      -3.08499637  T        0
Si      15.06983162       5.29080948      -4.87034425  T        0
Si      19.55322493       3.01179214      -7.09770165  T        0
Si      21.29454796       1.34100198      -0.87341683  T        0
Si      17.28108008       3.00246901      -4.91535818  T        0
O       17.99668483      -3.44029020       2.42664175  T        0
O       21.00903381      -6.41383074       2.54027875  T        0
O       22.63652374      -1.91050789       0.78064530  T        0
O       20.01600760      -4.49445893       0.97576859  T        0
O       24.36966782      -0.27324096       3.52748537  T        0
O       18.39126087      -2.67778485      -0.16357119  T        0
O       21.92679942      -6.14457361      -0.03167712  T        0
O       20.10079864      -1.90774599       1.66339825  T        0
O       22.62444689      -4.39832069       1.71986642  T        0
Si      21.38678676      -0.96366522       1.26819137  T        0
Si      21.36676023      -5.36895002       1.30337636  T        0
Si      23.59318444      -3.17129906       1.21390640  T        0
Si      19.11260086      -3.14927342       1.23539632  T        0
H       15.43757914      10.38640764       5.57209357  F        0
H       20.10951523      12.72546585       3.23923157  F        0
H       20.10951519       3.23923103      12.72546793  F        0
H       15.43757911       5.57209275      10.38640946  F        0
H       17.77043279      10.38640226       3.23924444  F        0
H       17.77043311       3.23924387      10.38640412  F        0
H       17.22544067      10.92750153       8.65411313  F        0
H       17.22544070       8.65411150      10.92750362  F        0
H       21.54216027      12.99764967       6.60187561  F        0
H       21.54216028       6.60187434      12.99765198  F        0
H       26.95194123       7.17131746       4.82834527  F        0
H       26.95194124       4.82834452       7.17131883  F        0
H       25.19630608       9.34383456       6.60185911  F        0
H       25.19630604       6.60185806       9.34383627  F        0
H       26.93058105       7.58756876       1.24433203  F        0
H       26.93058086       1.24433163       7.58757011  F        0
H       26.95192867       1.27083937      -1.07240246  F        0
H       25.19622735      -0.50276655      -3.24494277  F        0
H       26.93057835       4.85486043      -1.48866112  F        0
H       26.95192866      -1.07240650       1.27083969  F        0
H       25.19622853      -3.24494603      -0.50276481  F        0
H       26.93057847      -1.48866524       4.85486109  F        0
H       14.01033133       6.62630079      -3.23950641  F        0
H       13.46920992       3.54427607      -5.02735139  F        0
H       19.36968740       1.27081557      -8.65438303  F        0
H       15.74261410       1.27081536      -5.02730892  F        0
H       17.49833355      -0.50278089      -2.85477948  F        0
H       21.54221652      -0.50278066      -6.89866328  F        0
H       15.44301081       6.89846591      -6.60212382  F        0
H       19.78593015       4.85484827      -8.63303166  F        0
H       17.77043326      -4.28747560       2.85995000  F        0
H       20.10952426      -6.62656664       2.85995001  F        0
H       17.49833238      -2.85478383      -0.50277915  F        0
H       21.54221602      -6.89866750      -0.50277915  F        0
Fe      20.54819628       4.38464899       4.42796037  T        0
Fe      20.62221775       4.07929038       1.20533067  T        1
O       19.97393965       5.25272749       0.21936547  T        2
O       19.91884972       3.72007774       2.86864803  T        3
