144
Lattice="19.123 0.0 0.0 0.0 14.277 0.0 0.0 0.0 7.5465" Properties=species:S:1:pos:R:3:move_mask:L:1:tags:I:1 i=128 E=-2603.9155142701 regions="_JSON [\"Active\"]" n_terminators=34 energy=-968.9246938800964 pbc="F F F"
O        6.05409530       1.10599024       1.43502111  T        0
O       15.64044437       8.44204011       5.86842550  T        0
O        3.27551785       8.54151042       5.96392648  T        0
O        5.86072339      13.18589198       1.34023342  T        0
O       15.94584158       5.82707710       5.67813736  T        0
O       12.93077325      13.09986191       1.64187526  T        0
O        3.31884210       5.82243010       5.88824344  T        0
O       13.20727099      13.18768400       6.17967732  T        0
O        3.51672104       5.78043792       1.74377939  T        0
O        6.16467212      13.12185519       5.96268283  T        0
O       15.90404340       5.78752876       1.70123486  T        0
O        3.42670725       8.45747556       1.72110998  T        0
O        5.96927634       1.14434454       6.11873490  T        0
O       15.63611490       8.44867135       1.72026295  T        0
O        7.25613162       3.34679296       2.45271453  T        0
O       17.22475590      10.60626971       6.18728635  T        0
O       11.58495444       3.30567187       2.33433008  T        0
O        2.05911566      10.95818036       6.08170327  T        0
O        7.32130385      11.08006624       2.36508540  T        0
O       11.79534926      10.68349148       2.09823591  T        0
O        1.97091099       3.48138059       6.07957232  T        0
O       12.06925088      11.00549865       4.99429824  T        0
O        1.98039936       3.57504054       1.40832926  T        0
O        7.32279861      10.84471087       5.04572819  T        0
O       11.64603477       3.17498526       5.07263287  T        0
O        2.15799934      10.80781755       1.34125908  T        0
O        7.24427174       3.33394590       5.07026761  T        0
O       17.13568281      10.68100807       1.40246360  T        0
O        6.61977414       3.28108274      -0.04815762  T        0
O       16.12671313      10.07555492       3.80114959  T        0
O        3.03713225      10.12693098       3.78637656  T        0
O        6.46726414      11.20762824      -0.17681932  T        0
O       12.84553618      11.22482024      -0.25091939  T        0
O        3.02076874       4.16623855       3.78130646  T        0
O        4.64514214       3.35606834       1.80917497  T        0
O       14.59144422      10.91504907       5.84403860  T        0
O        4.72894284      10.81684560       5.71973477  T        0
O        4.77149125      10.74148520       1.85750714  T        0
O       14.47761949      10.87358249       1.86592612  T        0
O        4.66545558       3.48947801       5.76954707  T        0
O       11.71278367       8.32056595       3.76396454  T        0
O        7.45288060       8.63993534       3.44866482  T        0
O        1.80007023      13.13844186      -0.03671213  T        0
O       11.66973132       5.60043042       3.79850378  T        0
O        7.47965822       5.68095114       3.75618514  T        0
O        9.55535382      10.26045429       3.48618854  T        0
O       -0.03102535      11.15831696      -0.24398496  T        0
O        9.51708909       3.97046955       3.77039312  T        0
O       13.54378977       6.91522304       5.12133143  T        0
O        5.38506350       7.27334473       5.00981985  T        0
O        5.78670586       7.21897040       2.06113607  T        0
O       13.54874089       6.89281054       2.45301538  T        0
O       14.18447892       7.02756930      -0.05792649  T        0
O        4.66313810       7.12730017      -0.26979847  T        0
Si       6.13082147       2.76191984       1.44062932  T        0
Si      15.88037234      10.00909686       5.43327622  T        0
Si       3.28846572      10.08429532       5.41232721  T        0
Si       6.09693233      11.55505037       1.37385454  T        0
Si      13.05799899      11.48009521       1.35675897  T        0
Si       3.26538124       4.25029840       5.40512647  T        0
Si      13.09366668      11.53173172       6.12522410  T        0
Si       3.29918588       4.20475562       2.17361046  T        0
Si       6.18422623      11.46877323       6.07507485  T        0
Si       3.32766181      10.03292881       2.18166049  T        0
Si       6.11399151       2.79672778       6.11223208  T        0
Si      15.84592184      10.01139065       2.18752227  T        0
Al      11.34363862      10.02219050       3.79580522  T        0
Si       7.90971885      10.20740660       3.65880488  T        0
Si       1.56088308      11.49623684      -0.04304151  T        0
Si      11.15048089       4.04163255       3.75302546  T        0
Si       7.88328128       4.11642781       3.77099027  T        0
Si      14.85832740       7.01587803       6.07726523  T        0
Si       4.22376218       7.18644554       6.11467138  T        0
Si       4.30549141       7.13340574       1.32551816  T        0
Si      14.83245418       7.03125162       1.46907926  T        0
Si      12.58840880       6.95933664       3.78971885  T        0
Al       6.52667250       7.11487973       3.75765642  T        0
O        6.66197555       3.24716847       7.59587679  T        0
O        6.69913525      11.07338890       7.58987505  T        0
O       12.50378743      11.03072745       7.58223380  T        0
O       14.27747994       6.83798480       7.61258532  T        0
O        4.93743652       7.17457002       7.60339708  T        0
O        3.44771348       8.47231893      -2.20803515  T        0
O        3.21484728       5.85149669      -2.19834376  T        0
O       12.89415398      13.03134438      -2.30234144  T        0
O        6.28725448      13.04752229      -2.20793805  T        0
O        2.30403082      10.76337884      -1.31308896  T        0
O        7.55573957      10.81552522      -5.35433825  T        0
O       11.93153249      10.33002097      -5.38904389  T        0
O       12.00585903      10.60033910      -2.69064829  T        0
O        7.40749471      10.72672419      -2.62434745  T        0
O        2.76037893      10.43818837      -3.89733906  T        0
O       14.68500872      11.10487300      -2.25560583  T        0
O        4.79757293      10.77531087      -2.18286119  T        0
O       11.33966224       8.22023566      -3.82307974  T        0
O        7.44404727       8.46245340      -4.01701264  T        0
O        7.79595254       5.87099892      -3.93532521  T        0
O        9.62996113      10.11484334      -3.92886620  T        0
O        5.63097589       6.98350738      -2.71406801  T        0
O        5.77132102       6.83344098      -5.41374360  T        0
Si       3.32919550      10.10065591      -2.38672798  T        0
Si      13.11451600      11.46146459      -1.85942893  T        0
Si       6.22201316      11.45699773      -1.78947773  T        0
Si      11.24891254       9.85597822      -3.96026241  T        0
Si       7.99681479      10.01170425      -3.98091326  T        0
Si       4.24845559       7.09261385      -1.85550621  T        0
Si       6.63881155       7.03762643      -4.01461121  T        0
H        5.61083456       0.52083913       2.07985367  F        0
H        5.61112307      13.75835362       2.07975607  F        0
H       15.75636517       4.89339805       5.45628994  F        0
H       13.50958039      13.75682243       2.07498241  F        0
H       13.51084140      13.75504172       5.44776650  F        0
H        5.62495998      13.75277707       5.44935724  F        0
H       15.75706449       4.89440344       2.08043705  F        0
H        5.62509051       0.52255101       5.44942550  F        0
H       17.28974254      11.12548174       7.01862795  F        0
H       12.44565577       3.15588527       1.90033815  F        0
H        1.83343022      11.12554006       7.01950242  F        0
H        1.81954193       3.15353441       6.98813474  F        0
H        1.83183800       3.14857954       0.53722786  F        0
H       12.44354748       3.15657450       5.63339447  F        0
H       17.29120144      11.12876736       0.54010345  F        0
H        6.35952436       2.97904956      -0.93427223  F        0
H        2.56257806      13.76129914       0.00087584  F        0
H       -0.96427299      11.34215683       0.00103770  F        0
H       14.60982961       7.13673871      -0.92783774  F        0
H        6.35949513       2.97597070       8.47938261  F        0
H        6.35946036      11.30224636       8.48133548  F        0
H       12.76333233      11.30075111       8.47967776  F        0
H       14.61405599       7.13800201       8.47661577  F        0
H        4.50898861       7.14016697       8.47499567  F        0
H        3.36064390       4.89097090      -2.09366187  F        0
H       13.51084140      13.75504172      -2.09873350  F        0
H        5.62495998      13.75277707      -2.09714276  F        0
H        6.67686405      11.12256578      -5.64493030  F        0
H       12.44599272      11.12072140      -5.64644730  F        0
H        3.19736723      10.11759060      -4.70766930  F        0
H       15.19994748      10.29594087      -2.09275354  F        0
H       12.12595522       7.65409943      -3.78385824  F        0
H        7.80677964       4.90364681      -3.78479629  F        0
H        4.87243006       7.14046961      -5.64294599  F        0
Fe      10.06806193       9.93811626       1.35635621  T        0
Fe       7.37441822       8.21080448       1.30698824  T        1
O        8.86304289       8.88080723       0.50956256  T        2
