136
Lattice="20.102 0.0 0.0 0.0 19.731 0.0 0.0 0.0 13.253" Properties=species:S:1:pos:R:3:move_mask:L:1:tags:I:1 i=77 E=-3472.0240129048 regions="_JSON [\"Active\"]" n_terminators=32 energy=-913.8294301552265 pbc="F F F"
O       11.91967198      16.84754589       4.72434657  T        0
O       11.90308020      12.76332136       4.68097357  T        0
O        3.40809521      18.41230690       6.02700630  T        0
O        6.34320940      18.81440464      11.07153555  T        0
O        6.54177357      10.55508247      11.66612977  T        0
O       17.02415250      10.68865586       9.08083630  T        0
O       16.30692019      18.96539987       8.87169265  T        0
O        3.66450890      12.12911246       8.06430366  T        0
O        4.05542306      17.13217418       8.16358935  T        0
O       14.43105825      17.31026472      11.98109356  T        0
O       14.04773650      11.96371864      11.89667647  T        0
O        5.98931896      18.47752589       6.78102521  T        0
O       16.12462533      19.08494458      13.13537102  T        0
O       16.11702990      10.77746496      13.21532122  T        0
O        4.23900657      19.81277224       8.20711406  T        0
O       14.26015585      19.84912596      11.27738503  T        0
O       14.73521352       9.32615394      11.45047278  T        0
O        7.37635981      12.07070925       8.14673011  T        0
O        8.13350568      17.24790949       7.68604414  T        0
O        8.42742653      19.28237718       5.84246130  T        0
O       12.02892578      10.58408130       9.29887459  T        0
O       11.30912797      18.97457042       9.18398033  T        0
O       16.37321701      17.27218650       4.71028663  T        0
O       16.23461424      12.54485039       4.49707347  T        0
O       10.29251893      16.45194157       9.42568275  T        0
O        9.87471380      12.19944026       9.12084261  T        0
O        7.57606138      16.45413318      10.54196765  T        0
O        7.74152457      12.80848957      10.66410058  T        0
O       17.81966075      13.19911013       9.41603131  T        0
O       17.91543121      17.10778945       9.76752363  T        0
O        8.46537875      14.49528773       8.87369803  T        0
O        6.27791372      16.79824335      12.82294841  T        0
O        6.14378779      12.91100026      12.70749421  T        0
O       16.59727641      12.58702438       7.17571564  T        0
O       16.63245419      16.83708648       7.32429106  T        0
O        4.89634609      16.60738325      10.59742153  T        0
O        5.19034744      12.45811966      10.22517536  T        0
O       15.16007774      12.70613389       9.39277008  T        0
O       15.30095756      16.56961880       9.56504007  T        0
O       15.96985009      14.80394382       5.76605919  T        0
O       14.15866674      12.84574882       6.18091264  T        0
O       14.20099713      16.75858767       6.18082997  T        0
O       12.34644237      14.79605109       6.28633121  T        0
O       11.79269243      12.39554984       7.31302402  T        0
O       11.94019921      17.16487475       7.40269960  T        0
O        2.27384099      16.22913331      10.07940386  T        0
O        2.66208720      12.79121539      10.53987132  T        0
O       12.29697485      13.15142180       9.83576039  T        0
O       12.68500978      16.79806465       9.99124637  T        0
O        4.03354254      14.60089662       9.08430209  T        0
O       13.87036232      14.82471136      11.07215993  T        0
Si       4.43833907      18.47538196       7.30308592  T        0
Si      14.60907122      18.85841761      12.51813855  T        0
Si      14.61545702      10.58287283      12.53250708  T        0
Si       7.58831640      18.66230266       7.11564877  T        0
Al       8.57109187      16.25020680       9.00274921  T        0
Si       8.41101665      12.90717580       9.11804569  T        0
Si       6.26260895      17.21091706      11.23409655  T        0
Si       6.34559761      12.13340412      11.29870822  T        0
Si      16.59403176      12.26294000       8.79332326  T        0
Si      16.55818892      17.35843055       8.86897441  T        0
Si      15.74374079      13.19136155       5.92688185  T        0
Si      15.79019477      16.40624989       5.98505751  T        0
Si      12.57514586      13.19296993       6.11748886  T        0
Si      12.61575379      16.38882069       6.13716750  T        0
Si      11.49719968      12.08310592       8.88411464  T        0
Si      11.54151811      17.40005237       8.95357783  T        0
Si       3.79977104      16.18031242       9.45989276  T        0
Si       3.86797461      13.00817252       9.44145516  T        0
Al      13.97812382      13.08347606      10.58917710  T        0
Si      14.14452882      16.37648663      10.67694244  T        0
O        9.92491682      21.22285017       9.17965994  T        0
O        7.60287823      21.09552029      10.49831557  T        0
O       17.97001369      21.09873250       9.23372596  T        0
O        7.66675367      22.53454355       8.34820732  T        0
O        7.81338793      19.81911497       8.24087227  T        0
O        6.42380284      20.96942711      12.76399540  T        0
O       16.61540594      20.96303526       7.04218698  T        0
O        4.90382564      20.97664536      10.50593953  T        0
O       15.26000383      21.33475912       9.35783659  T        0
O       11.49954064      20.84830094       7.17791122  T        0
O        2.31838976      20.83281542       9.70193931  T        0
O       12.60552948      21.21384392       9.65419554  T        0
O        3.92529578      22.48191219       8.42220499  T        0
O       13.98296279      22.56767452      11.41999159  T        0
Si       8.29027019      21.16540335       9.01969481  T        0
Si       6.28872028      20.45461583      11.21490163  T        0
Si      16.52611995      20.57524104       8.63891117  T        0
Si      11.37137715      20.57224651       8.79452741  T        0
Si       3.88106561      21.04093427       9.21806326  T        0
Si      14.04001694      21.24335049      10.44830479  T        0
O       13.50915535      19.24382322      13.66900247  T        0
O       13.63853167      10.08396111      13.77927640  T        0
O        5.88314059      12.60978495      15.37107739  T        0
O        5.72837776      16.95752240      15.46175838  T        0
O        5.16667381      14.81030783      14.19247110  T        0
O        3.69776147      16.97622370      13.63394863  T        0
O        3.65179689      12.65679032      13.80616747  T        0
Si       5.20203847      16.41096806      14.01631933  T        0
Si       5.18553016      13.20669445      14.02460722  T        0
H       11.77741499      17.76721957       4.45015374  F        0
H       11.77741500      11.82883679       4.45015372  F        0
H        3.46536401      19.01504758       5.26900440  F        0
H        6.59189033       9.81912404      11.03827922  F        0
H       16.64303307       9.81912404       8.84117322  F        0
H        4.35449611      11.55048736       7.68308178  F        0
H       16.97340650      18.78964577      12.75613404  F        0
H       16.97340651      10.80641058      12.75613404  F        0
H       14.16364097       9.08086469      10.69751272  F        0
H        7.69777211      11.47779022       7.44841170  F        0
H        8.50665683      19.01129957       4.91774358  F        0
H       11.52310774       9.76092419       9.21110646  F        0
H       15.87290964      17.87210703       4.12309272  F        0
H       15.87290964      11.72394929       4.12309273  F        0
H       18.05303808      13.25020103      10.35989921  F        0
H       18.05303809      16.34585533      10.35989921  F        0
H        1.73086688      16.98843832      10.35624453  F        0
H        1.73086689      12.60761804      10.35624453  F        0
H       18.28958667      21.16688107      10.15436837  F        0
H        7.84356087      22.87259074       7.45668424  F        0
H        6.01931354      20.68412461      13.59787507  F        0
H       16.07044730      20.68412712       6.28158542  F        0
H       12.20788616      20.61981982       6.55602502  F        0
H        1.92726146      20.79864952      10.59110356  F        0
H        4.51576461      22.82060840       7.71911054  F        0
H       14.56690736      22.82060840      12.16034191  F        0
H       13.51650675      19.01504758      14.61047976  F        0
H       13.51650676      10.58100877      14.61047976  F        0
H        5.82176689      11.72394931      15.75639142  F        0
H        5.82176689      17.87210706      15.75639142  F        0
H        2.98936131      16.34896307      13.39901228  F        0
H        2.98936131      13.24709329      13.39901228  F        0
Fe      11.52763954      14.95233639      10.67591261  T        0
Fe       8.41946775      14.77603851      11.45271797  T        1
O       10.17936720      13.93438856      11.90638545  T        2
O       10.19210945      15.38743968      12.25572914  T        3
