136
Lattice="20.102 0.0 0.0 0.0 19.731 0.0 0.0 0.0 13.253" Properties=species:S:1:pos:R:3:move_mask:L:1:tags:I:1 i=77 E=-3472.0240129048 regions="_JSON [\"Active\"]" n_terminators=34 energy=-903.4173087523995 pbc="F F F"
O        9.96875751       8.42377836       9.20620456  T        0
O        7.63591420       8.82723075      10.36103993  T        0
O        7.66556082       7.21122814       8.28327497  T        0
O       12.18344172      12.71514264       4.46895461  T        0
O        8.14129306       9.86401453       7.92220597  T        0
O        3.50822497      11.29694779       5.92595340  T        0
O        6.45194466       8.84695311      12.73446106  T        0
O        5.94575190      11.02629946      10.96965057  T        0
O        4.74947077       8.42545534      10.24561444  T        0
O       15.10498150       8.69537492       8.96594044  T        0
O        3.95894344      12.46089503       8.21816054  T        0
O       14.74324154      12.42363208      11.66071966  T        0
O        5.94604476      11.06936609       7.01763087  T        0
O       16.18130437      10.29493136      12.52332139  T        0
O        3.91239653       9.78535729       8.12251737  T        0
O       14.01664753       9.90768823      11.16651699  T        0
O        7.95860192      12.54352609       7.87173349  T        0
O        7.50569068      17.24581415       7.84593246  T        0
O        8.26442809      11.24404504       5.59987047  T        0
O       11.45431211       8.85524040       7.15284120  T        0
O        2.10916790       8.52842792       9.67140032  T        0
O       12.63267664       8.31455547       9.58159278  T        0
O       11.40116707      10.65897189       9.22881482  T        0
O        3.68889749       7.11930375       8.10674548  T        0
O       14.46667728       7.28397448      11.26183323  T        0
O        9.86218342      17.35390634       8.98765768  T        0
O       10.07585511      12.86039304       9.45759803  T        0
O        7.70342218      16.93792620      10.54807078  T        0
O        7.73738973      12.95676252      10.54445144  T        0
O        8.48017665      14.97374217       8.87897653  T        0
O        6.22056517      13.01648591      12.76353025  T        0
O        5.16479262      13.52111457      10.38671039  T        0
O       15.37584717      13.29894863       9.18733447  T        0
O       14.16153477       4.82600938      12.14153625  T        0
O       14.22579044      13.79393675       5.89435638  T        0
O       16.49107239       6.00555738      12.53759406  T        0
O       11.87135870      14.96708505       5.85075157  T        0
O       12.09415916      12.57439647       7.12628865  T        0
O        2.62652084      12.92711729      10.55795401  T        0
O       12.78986548      13.06414033       9.93068827  T        0
O        3.49335038      14.98979706       8.99127707  T        0
O       14.39917115      14.93218223      11.06644632  T        0
Si       8.36271274       8.57294815       8.89696402  T        0
Al       5.99583028       9.30194448      10.99686241  T        0
Si       4.33659106      11.13570688       7.33663349  T        0
Si      14.67131109      10.91827479      12.27395661  T        0
Si       7.56690700      11.15474393       7.08595822  T        0
Si      11.42399457       9.06896813       8.78324653  T        0
Si       3.64674781       8.46575509       9.06544198  T        0
Si      14.10769110       8.54047271      10.27943583  T        0
Si       8.39830936      16.60639773       9.07983719  T        0
Si       8.52944357      13.36880793       9.15978585  T        0
Si       6.24797986      12.58677372      11.17996811  T        0
Si      14.86285844       6.27367529      12.49043908  T        0
Si      12.60211649      13.48096480       5.87729462  T        0
Al      11.70637405      12.38285752       8.77283557  T        0
Si       3.78997038      13.45097398       9.50543110  T        0
Si      14.28312068      13.41499551      10.43749149  T        0
O       10.15352309      10.96376923      17.21640938  T        0
O       12.57569604      11.24653230      16.11701040  T        0
O       11.92427758      12.75594460      18.17066788  T        0
O       12.31467911      10.10570520      18.55947370  T        0
O       13.71115514      10.94178450      13.60450610  T        0
O       13.47952168       8.95170082      15.32747008  T        0
O        5.00158573      11.01252657      17.52662676  T        0
O       15.26439888      11.02659249      15.60991591  T        0
O        5.73686493       7.31934987      14.83348229  T        0
O        3.99516240       8.78463801      13.34197142  T        0
O       14.28163745       8.83903658      19.86201447  T        0
O        5.71452620       9.93608002      15.12800407  T        0
O       12.35954020       7.43024104      18.55025650  T        0
O        8.61159704      10.87715054      19.30446316  T        0
O       11.76601121       8.61182809      20.78902235  T        0
O        7.49501237      11.06751763      16.80244645  T        0
O        8.61336311       8.79848601      17.53917311  T        0
O        5.80617717      12.55839663      15.37487868  T        0
O       10.28483820       6.75040011      16.97483505  T        0
O       12.79350279       6.50170748      16.08847997  T        0
O       11.94640954       4.86936428      18.05402647  T        0
O       14.33145597       6.84589300      13.92924404  T        0
O        5.25083766       6.94357464      17.48123379  T        0
O       15.31891392       7.51043800      16.37462095  T        0
O        5.21209244      14.98355435      14.33928519  T        0
O        3.70717855      12.79472403      13.87614001  T        0
O        8.71266108       6.54232530      19.04141727  T        0
O        7.66314785       6.52553997      16.54441891  T        0
O        5.65064123       4.88700668      15.68536823  T        0
Si      11.73989330      11.24745006      17.53745429  T        0
Si      13.74118904      10.55444609      15.19728224  T        0
Si       5.46558264       8.72983995      14.07114623  T        0
Si      12.68468268       8.76676622      19.43420599  T        0
Si       8.69481908      10.42215412      17.72189623  T        0
Si       5.97784378      11.15289747      16.19890562  T        0
Si      11.82634201       6.38252953      17.41788497  T        0
Si      13.97383722       7.41461588      15.41486305  T        0
Si       5.24743733      13.35934120      14.05033770  T        0
Si       8.80896044       7.17962209      17.52963113  T        0
Si       6.08181199       6.40440361      16.15121680  T        0
H        7.84356088       6.72376138       7.45668423  F        0
H       11.77741500      11.82883679       4.45015372  F        0
H        3.46536401      10.58100877       5.26900439  F        0
H       16.04398914       8.93133647       8.84225548  F        0
H       16.97340651      10.80641058      12.75613404  F        0
H        7.69777211      18.11826613       7.44841170  F        0
H        8.50665683      10.58475679       4.91774357  F        0
H       12.20788617       8.97653229       6.55602501  F        0
H        1.92726146       8.79770260      10.59110356  F        0
H        4.51576461       6.77574371       7.71911054  F        0
H       10.76020324      17.16956735       9.31164421  F        0
H        6.74596320      16.92620537      10.74076342  F        0
H       15.75661379      12.42699387       9.00459924  F        0
H       14.42640568       4.01828351      12.61908764  F        0
H       14.91456245      13.24933472       6.30897701  F        0
H       17.11292418       6.48361095      13.10695602  F        0
H       12.17714149      15.71306863       6.40017283  F        0
H        1.73086689      12.60761804      10.35624453  F        0
H        4.05997682      15.72757570       9.28699687  F        0
H       14.11111957      15.72757569      10.59245558  F        0
H       12.25872463      13.00694285      19.04928406  F        0
H        4.05829635      10.79936776      17.66371281  F        0
H       15.58095515      11.20568437      16.50370227  F        0
H        3.12887899       8.92429365      13.74983426  F        0
H       15.03932990       8.88569483      19.24568334  F        0
H        7.89439933      10.75417195      19.94994328  F        0
H       11.59562866       9.14594745      21.58822472  F        0
H       11.61525895       4.01919395      17.70533654  F        0
H        4.34567170       7.30371036      17.50136906  F        0
H       15.83774429       6.73639486      16.63016865  F        0
H        5.67587981      15.71242072      13.88688066  F        0
H        2.98936131      13.24709329      13.39901228  F        0
H        8.00892554       6.80873427      19.65039775  F        0
H        5.99116592       4.00312854      15.91351272  F        0
Fe      10.19230125      11.33477406      10.83568974  T        0
Fe       8.38533182       9.21280250      12.31658239  T        0
O        9.41001938      10.95795000      12.64387947  T        0
O       10.28581375       9.80353127      12.21381890  T        0
