136
Lattice="24.397 0.0 0.0 0.0 24.397 0.0 0.0 0.0 24.397" Properties=species:S:1:pos:R:3:move_mask:L:1:tags:I:1 i=41 E=-6943.8331748197 regions="_JSON [\"Active\"]" n_terminators=30 energy=-930.0944432801642 pbc="F F F"
O        9.40801285      14.63614735      -0.04057137  T        0
O       12.23219152       9.38223250       2.66345120  T        0
O       12.36453767      15.80185841       8.86370259  T        0
O        9.45587417      18.39849590       3.42920786  T        0
O       15.62642168       9.46260867       6.18804425  T        0
O       21.07321068      12.41227502       3.65174547  T        0
O       21.05776332      15.77742266       0.14154988  T        0
O        5.72738833       8.79211757       2.47221867  T        0
O       14.67611787       9.45191480      -0.16150302  T        0
O        9.46467393      12.37127871       2.52623717  T        0
O       15.80397506      12.36706247       8.87131961  T        0
O       18.32588463       9.42356128       3.46241646  T        0
O        9.48180500      15.63194674       6.17326446  T        0
O       12.41636425      21.07173677       3.65825828  T        0
O       15.80137469      21.08078937       0.16724257  T        0
O        8.70884639       5.65255608       2.30634936  T        0
O       11.61312785      13.78541962       1.74001241  T        0
O       13.78042372      11.39135527       1.87489945  T        0
O       19.00249654      16.64398517       1.74476173  T        0
O       16.63380377      18.99906785       1.74955657  T        0
O       10.38493957      10.38133874       1.05769808  T        0
O       11.28531636      16.70978902       4.50163279  T        0
O       13.99834411      18.94592378       4.39674860  T        0
O       13.96320733      16.62416363       6.78336661  T        0
O       18.94926285      13.99332794       4.40380992  T        0
O       16.56995651      11.26017498       4.39726672  T        0
O       16.63104395      13.95647980       6.78903162  T        0
O        7.71555986       7.78390375       0.98433690  T        0
O       11.87851976      11.89762825       3.61144420  T        0
O       12.13009576       8.72993485       0.02845668  T        0
O        8.73750321      12.07450487      -0.06795420  T        0
O       12.07405460      14.91380829       6.30069812  T        0
O       12.05201681      18.52872673       2.73622156  T        0
O       18.52986716      12.02990854       2.77785032  T        0
O       14.92023785      12.06498435       6.31394501  T        0
O        6.08986391       9.70296162      -0.06649748  T        0
O        9.57158609       6.18725472      -0.18508565  T        0
O       10.46227594      16.48441351       1.97403933  T        0
O       13.98976236      10.46045355       4.39448163  T        0
O       20.01804521      14.10893978       1.91132353  T        0
O       16.57556992      10.47712677       1.83226308  T        0
O       10.56566071      14.12003917       4.24892369  T        0
O       14.11917592      20.05015246       1.92172067  T        0
O        7.80719591      10.36452679       1.76482661  T        0
O       14.12564852      14.12428444       7.85050762  T        0
O       10.28786475       7.79201661       1.73806077  T        0
Al      10.77818353      15.23641599       0.84589993  T        0
Si      12.96241037      10.75777292       3.17467330  T        0
Si      19.65677243      15.37142185       0.92838543  T        0
Al      15.18664128      10.74258368       0.87429102  T        0
Si      10.86145652      13.05199205       3.05787375  T        0
Si      15.37023298      19.67646188       0.93399429  T        0
Si       9.07051832      11.31023709       1.32189784  T        0
Si      10.85953077      15.35421370       5.29914063  T        0
Si      13.13496968      19.65460094       3.18316892  T        0
Si      17.49206812      10.80557578       3.10649769  T        0
Si      15.37481462      13.13160002       7.46565459  T        0
Si       9.04550314       6.85307532       1.22327006  T        0
Si      11.26546785       9.04724885       1.36513581  T        0
Si      15.29761387      10.82687489       5.32016092  T        0
Si      19.65200128      13.13039976       3.18846830  T        0
Si      10.82296261      17.51683229       3.13615702  T        0
Si      13.13185039      15.37236435       7.45900165  T        0
Si       6.83000192       9.13453832       1.28841899  T        0
O       14.78865390      12.20739330      -2.65000091  T        0
O       14.82146030       8.84307593      -6.46225057  T        0
O        5.91458464      14.74434764      -3.43325678  T        0
O       15.64376241      18.35784139      -2.76803828  T        0
O       12.17643947      14.89413373      -2.78002990  T        0
O        8.80908823      14.67914794      -6.61863050  T        0
O       14.78315917       6.04779967      -3.48460808  T        0
O       18.29154707      15.67745533      -2.74769118  T        0
O       13.91843456      14.11707632      -0.93512446  T        0
O       13.15257294       7.89873577      -4.62348295  T        0
O        7.84614915      13.26757212      -4.60801384  T        0
O       16.50646818      16.56260960      -0.91604053  T        0
O       12.95532279      10.33778744      -1.97704698  T        0
O       10.32436496      13.07736950      -1.99125924  T        0
O       12.08245680      15.71176802      -0.19383353  T        0
O       15.22722615      12.31733273       0.02082431  T        0
O       12.27788019       9.83982891      -6.30398265  T        0
O       12.01923628       5.97753610      -3.46420860  T        0
O        6.04459193      11.98251914      -3.40085208  T        0
O        9.78126291      12.17519644      -6.18193947  T        0
O       18.48801398      14.95500929      -0.14418648  T        0
O       14.92552642      18.53519816      -0.15509251  T        0
O       12.30434414      12.35510131      -3.57462694  T        0
O       16.53510825      14.01013203      -1.69971179  T        0
O       13.98478453      10.44844513      -4.46238890  T        0
O        7.71242944      13.61357576      -1.93008652  T        0
O       13.98590155      16.63880616      -1.83222709  T        0
O       10.40863291      14.02134066      -4.51163447  T        0
O       13.53701455       7.73034517      -1.95394061  T        0
Si      15.20813391      13.13579942      -1.38834375  T        0
Si      13.55378786       9.23046867      -5.47393647  T        0
Si       6.87142515      13.40115730      -3.31014831  T        0
Si      15.27646652      17.53757889      -1.39027169  T        0
Si      12.97973752      15.42183144      -1.46719568  T        0
Si       9.18912533      13.53526052      -5.48705124  T        0
Si      13.37396719       6.90182564      -3.35098173  T        0
Si      17.47373768      15.32314536      -1.36002508  T        0
Si      13.35850786       9.05680801      -1.00862800  T        0
Si      11.28464172      13.57726177      -3.21336969  T        0
Si       9.04187259      13.39481972      -0.99544238  T        0
Si      13.49016703      11.31651335      -3.17451421  T        0
H       11.67124922      16.48560174       8.95913012  F        0
H        9.33839640      18.82463975       4.28720704  F        0
H       16.48559112       9.33840607       6.62628668  F        0
H       21.15750258      11.67126816       4.28721909  F        0
H       21.15749781      16.48550533      -0.52720743  F        0
H        5.57209183       7.91116076       2.85997479  F        0
H       16.48560162      11.67124930       8.95913012  F        0
H       18.82463962       9.33839646       4.28720704  F        0
H        9.33840600      16.48559124       6.62628668  F        0
H       11.67126808      21.15750273       4.28721909  F        0
H       16.48550522      21.15749796      -0.52720744  F        0
H        7.91116071       5.57209184       2.85997479  F        0
H       19.36967537      17.02670403       2.55489743  F        0
H       17.02670393      19.36967551       2.55489742  F        0
H       14.75328390      19.36965561       4.82834093  F        0
H       14.75330456      17.02669971       7.17128892  F        0
H       19.36965547      14.75328399       4.82834093  F        0
H       17.02669959      14.75330466       7.17128892  F        0
H        5.29994992       9.34387197      -0.50274702  F        0
H        9.34387190       5.29994996      -0.50274702  F        0
H       15.05832753       7.91114247      -6.62654864  F        0
H        5.57209393      15.05833723      -4.28746901  F        0
H       16.48557283      18.82464187      -2.86023677  F        0
H        7.91114242      15.05832763      -6.62654864  F        0
H       15.05833712       5.57209397      -4.28746900  F        0
H       18.82464171      16.48557294      -2.86023676  F        0
H       11.69567657       9.34382508      -6.89874716  F        0
H       11.69569900       5.29990410      -2.85482259  F        0
H        5.29990407      11.69569909      -2.85482259  F        0
H        9.34382502      11.69567665      -6.89874716  F        0
Fe      13.37174148      13.13095934       0.87976038  T        1
