136
Lattice="20.102 0.0 0.0 0.0 19.731 0.0 0.0 0.0 13.253" Properties=species:S:1:pos:R:3:move_mask:L:1:tags:I:1 i=77 E=-3472.0240129048 regions="_JSON [\"Active\"]" n_terminators=30 energy=-930.97097810172 pbc="F F F"
O       10.14359694       1.09259009       9.65757772  T        0
O       10.13770579       8.63716799       9.61623188  T        0
O        7.69320847       0.95213943      10.50705761  T        0
O        7.62416271       8.80752449      10.41532631  T        0
O        8.17477976       2.61962419       8.53366082  T        0
O        8.10345589       7.59057763       8.11877465  T        0
O        8.24850823       0.02194534       8.05042799  T        0
O        1.42045335       9.91693513       1.78315915  T        0
O        8.49371682      10.25665460       8.29234241  T        0
O        6.55332112       1.20460285      12.82893193  T        0
O        6.65807376       8.70609540      12.89127352  T        0
O        4.13964978       9.22564812       4.54731895  T        0
O        6.54501843      11.00329092      11.62961928  T        0
O        4.02948479       1.02661769       4.27306591  T        0
O        5.02925146       0.74235813      10.63627208  T        0
O        4.97263985       8.90544332      10.84484954  T        0
O        5.84576710       2.49721686       1.29899996  T        0
O        6.00136861       7.65830040       1.23082976  T        0
O        3.90921524       1.04387494       0.20844896  T        0
O        3.82804131       9.18395514       0.86111574  T        0
O        5.63175779      -0.10198387       1.86733619  T        0
O        4.16892096      10.45581506       8.91670836  T        0
O        6.15576742      10.33766998       1.65633334  T        0
O        1.95447461       2.58186706       1.25107495  T        0
O        1.72599455       7.47446619       0.94167913  T        0
O       12.12461358       7.32183157       5.83800800  T        0
O       12.65426075       2.48975690       5.44329061  T        0
O        2.54925315       1.67372877      10.15654747  T        0
O        2.48075903       8.47974664       9.86144131  T        0
O        9.06490147       9.29572049       4.54859775  T        0
O        8.96368958       0.66603288       4.49854621  T        0
O        4.56789581       2.35614392       8.60650056  T        0
O        4.52707164       7.86131095       8.38082032  T        0
O        0.10619072       7.01525003       3.12240229  T        0
O       -0.10204349       3.29209804       2.90061106  T        0
O       10.41953429       2.78898510       3.96606509  T        0
O       10.48426228       7.12774449       3.70791529  T        0
O        2.68944171       7.24215385       3.37960733  T        0
O        2.42465714       3.11304009       3.81639976  T        0
O       12.79265202       3.49214883       2.89191275  T        0
O       13.19267118       7.02781642       3.46908691  T        0
O        1.70842067       5.07319519       2.16304908  T        0
O       11.78769032       4.97890030       4.70326109  T        0
O        3.82810343       6.71756601       5.72249894  T        0
O        3.75310870       2.94719121       6.12917685  T        0
O        5.35330636       7.01281247       3.74038177  T        0
O        5.07312059       3.55075759       3.95480785  T        0
O        4.29024411       4.92242743       7.86005597  T        0
O        6.27367881       6.38634461       6.52702808  T        0
O        6.24093875       3.45565160       6.80269713  T        0
O        8.32010121       5.01367977       7.45021277  T        0
O        8.66602555       6.88301581       5.58572557  T        0
O        8.67784972       2.84729704       5.94539043  T        0
O        7.90518533       7.39365163       3.05720457  T        0
O        7.79311483       2.85207462       3.43226431  T        0
O        6.54094823       5.19492678       2.35722597  T        0
Si       8.57880185       1.16415389       9.16700628  T        0
Si       8.59160464       8.81987246       9.10088772  T        0
Si       6.43866911       0.42084912      11.39547576  T        0
Si       6.44509153       9.37365669      11.40397389  T        0
Si       5.47682815       1.03699319       0.71923918  T        0
Si       5.45796004       9.14200493       0.74870028  T        0
Si       2.30628693       1.23539789       0.39948309  T        0
Si       2.21083419       9.02353467       0.63784908  T        0
Si       3.94836590       1.13743688       9.49019798  T        0
Si       4.03184378       8.90467979       9.50624431  T        0
Si       1.52423497       6.68103934       2.37487337  T        0
Si       1.48551271       3.48885331       2.52034719  T        0
Si      11.90016753       3.39790582       4.27383516  T        0
Si      11.89660078       6.58114592       4.38011287  T        0
Si       3.91340239       7.59585321       4.35970272  T        0
Si       3.80314255       2.61897426       4.52891491  T        0
Al       4.62525931       6.54125264       7.31154307  T        0
Si       4.67704685       3.43086508       7.40558110  T        0
Si       7.87033424       6.50146036       6.94985223  T        0
Si       7.85677762       3.46635946       7.18951230  T        0
Si       9.03042537       7.68139976       4.20941898  T        0
Si       8.92450258       2.29949452       4.41829956  T        0
Si       6.48839944       6.78929330       2.52248546  T        0
Al       6.37945777       3.45224805       2.63327806  T        0
O        6.47644720       0.44047139      -0.44088446  T        0
O        5.81274036       9.41029299      -0.82828315  T        0
O        1.56868693       1.43864878      -1.05720201  T        0
O        1.74616760       9.55049643      -0.84386961  T        0
O       10.03613803      -1.77467899       4.10622274  T        0
O        2.29169767      -0.89816267       3.60443805  T        0
O        2.24409545      -2.66769938       1.68324964  T        0
O        1.65232786      -0.07064188       1.14049162  T        0
O        3.47255417      -0.94676702       6.01332673  T        0
O        6.52675878      -1.19914809      11.68678748  T        0
O        4.91234625      -1.49579771       3.88915149  T        0
O        3.99856120      -2.73990746       7.90338966  T        0
O        5.84032314      -0.81683107       7.21760508  T        0
O        3.64690397      -0.16878281       8.55646959  T        0
O        7.40882716      -2.52612203       8.33502744  T        0
O        8.11618974      -1.46163161       5.91348672  T        0
O        7.52879789      -1.28205869       3.35296024  T        0
O        6.12638091      -2.80678171       1.81112813  T        0
Si       1.50250576      -1.28966987       2.21699192  T        0
Si       3.67439829      -0.58316465       4.43084908  T        0
Si       4.25234836      -1.18582006       7.43022436  T        0
Si       7.41900034      -1.19661391       7.35487304  T        0
Si       8.66611230      -0.93192686       4.45819976  T        0
Si       6.04553660      -1.42795036       2.69742516  T        0
O       -0.10150578      -1.58146060       2.50173585  T        0
H       10.95532306       1.01526715       9.12727255  F        0
H       10.95532307       8.85008497       9.12727255  F        0
H        1.72488369      10.74421016       2.18658265  F        0
H        7.75914502      10.43742179       7.68600442  F        0
H        6.01931354       0.95312461      13.59787507  F        0
H        6.01931354       8.91222751      13.59787507  F        0
H        3.45925242       9.91158019       4.41179507  F        0
H        6.45001595      11.67065412      10.93294989  F        0
H        4.32395249      10.52815797       7.96405277  F        0
H        5.93864452      10.64983954       2.55545558  F        0
H       12.40451339       8.25291401       5.80455660  F        0
H       12.40451338       1.61243810       5.80455660  F        0
H        1.92726146       1.06764952      10.59110356  F        0
H        1.92726146       8.79770260      10.59110356  F        0
H        8.57917776       9.96978004       4.04186183  F        0
H       -0.70903753       7.30425969       2.68512250  F        0
H       -0.70903753       2.56109242       2.68512249  F        0
H       13.35632229       2.80449888       2.51220488  F        0
H       13.35632228       7.06085325       2.51220488  F        0
H        6.58577873       0.71565665      -1.35751145  F        0
H        6.58577874       9.14969547      -1.35751146  F        0
H        1.54448592       0.71940466      -1.70877227  F        0
H        1.54448592       9.14594745      -1.70877228  F        0
H       10.94686465      -1.43592210       4.04088346  F        0
H        2.20758188      -3.14188650       0.83020009  F        0
H        6.45001594      -1.80559776      10.93294989  F        0
H        4.03182274      -3.06210338       8.82439872  F        0
H        8.21123678      -3.04022255       8.50458507  F        0
H        5.53537813      -3.08990416       1.09262638  F        0
H       -0.90389483      -1.01556292       2.50078841  F        0
Fe       5.56184735       5.22252917       4.98668358  T        1
