160
Lattice="19.123 0.0 0.0 0.0 14.277 0.0 0.0 0.0 7.5465" Properties=species:S:1:pos:R:3:move_mask:L:1:tags:I:1 i=128 E=-2603.9155142701 regions="_JSON [\"Active\"]" n_terminators=36 energy=-1083.5895377256404 pbc="F F F"
O        6.04860448       1.14820145       1.47229287  T        0
O       15.83291628       8.46013505       5.82786986  T        0
O       13.01573352       1.12347913       1.48430580  T        0
O        3.38999060       8.46376721       5.81676080  T        0
O        5.88716858      13.13561626       1.38212154  T        0
O       15.77042669       5.77121440       5.88596572  T        0
O       13.14644385      13.17230798       1.38427512  T        0
O        3.61724636       5.80549747       5.51533499  T        0
O       13.35994118      13.18506514       6.22192321  T        0
O        3.28611012       5.75948511       1.73204982  T        0
O        6.13551328      12.94782048       5.22797262  T        0
O       15.59059516       5.78362271       1.74558475  T        0
O       13.19393594       1.10410599       6.16600815  T        0
O        3.23090114       8.46771684       1.66873022  T        0
O        6.13023053       1.13318330       6.02074452  T        0
O       15.64200719       8.45839161       1.75177804  T        0
O        7.15685963       3.45192071       2.46803098  T        0
O       17.19524326      10.76437636       6.11260834  T        0
O       11.92904555       3.50242627       2.40267379  T        0
O        1.98481844      10.73977051       6.19849360  T        0
O        7.11334177      11.00265767       2.58887973  T        0
O       17.17174654       3.48132756       6.11004659  T        0
O       12.01326581      10.93944592       2.53274911  T        0
O        1.95030867       3.81813959       6.27689004  T        0
O       11.87772137      11.00820120       5.36838913  T        0
O        1.90678057       3.45571310       1.45839238  T        0
O        7.15414363      10.49154731       5.27647232  T        0
O       17.18132958       3.63395705       1.38570739  T        0
O       11.88008565       3.29773945       5.13026819  T        0
O        1.93175021      10.82610145       1.46509263  T        0
O        7.07544164       3.53099822       5.07874091  T        0
O       17.21219892      10.61734591       1.37176617  T        0
O        6.63956667       3.26458505      -0.04839739  T        0
O       16.14032221      10.13708678       3.75641403  T        0
O       12.48521813       3.27122149      -0.05702350  T        0
O        2.99364631      10.12982599       3.77784677  T        0
O        6.63229408      11.02742456      -0.03067228  T        0
O       16.10178582       4.13901053       3.77372043  T        0
O       12.48558116      11.02474086      -0.04253659  T        0
O        2.96313109       3.99798180       3.77195208  T        0
O        4.59241852       3.41083135       1.73434574  T        0
O       14.50523746      10.78250331       5.76384463  T        0
O       14.53505007       3.30283282       1.74940914  T        0
O        4.58361461      10.85225417       5.82221535  T        0
O        4.61592722      10.76336436       1.74909052  T        0
O       14.48584362       3.41995935       5.78878198  T        0
O       14.56067599      10.92182939       1.71493494  T        0
O        4.52472306       3.27311414       5.83394050  T        0
O       11.55185636       8.45362306       3.99781373  T        0
O        7.40462894       8.52400408       3.57691407  T        0
O       11.49503337       5.95562315       3.97538709  T        0
O        7.31215302       5.82382890       3.72188490  T        0
O        9.43176431      10.27280107       3.82851102  T        0
O        9.38256860       4.19817367       3.83319586  T        0
O       13.65108396       7.14803903       5.05205906  T        0
O        5.77107165       7.39868247       5.28027053  T        0
O        5.33768197       7.18306166       2.58903834  T        0
O       13.38661729       7.16922940       2.40097543  T        0
O       14.12102450       7.15338952      -0.08678480  T        0
O        4.87265786       7.10844945      -0.02004226  T        0
Si       6.08526302       2.80336846       1.42932383  T        0
Si      15.90042626      10.04678097       5.37624537  T        0
Si      12.99031817       2.79230232       1.43884817  T        0
Si       3.22870739      10.04618633       5.39718636  T        0
Si       6.04667240      11.49512204       1.43885799  T        0
Si      15.85908123       4.19431014       5.39822971  T        0
Si      13.03944134      11.50960448       1.43829189  T        0
Si       3.26831006       4.20655837       5.36648051  T        0
Si      13.12049090      11.53730318       6.24159449  T        0
Si       3.21143175       4.16934104       2.16210798  T        0
Si       6.05370107      11.50974966       6.05255819  T        0
Si      15.82855061       4.20395181       2.15259057  T        0
Si      13.00661104       2.76057647       6.12496012  T        0
Si       3.20825114      10.04328657       2.15338208  T        0
Si       6.06935820       2.78558613       6.10919344  T        0
Si      15.86306484      10.04516277       2.13874380  T        0
Al      11.21840766      10.25380370       3.92227709  T        0
Si       7.84704196      10.12077229       3.75235890  T        0
Al      11.15317104       4.14735323       3.80814029  T        0
Si       7.78242676       4.22552735       3.77163756  T        0
Si      14.89932884       7.14033405       6.10014743  T        0
Si       4.30963712       7.15032148       6.10742810  T        0
Si       4.15241521       7.12450365       1.46188331  T        0
Si      14.72298483       7.13847922       1.44412609  T        0
Si      12.60076041       7.18836874       3.81593125  T        0
Si       6.46330970       7.19636764       3.74379286  T        0
O        6.21217834      13.05321416       9.91886263  T        0
O       12.93499569      13.02977492       9.91948134  T        0
O        3.20911462       5.85873690       9.71028817  T        0
O        3.50766043       8.46541674       9.58696400  T        0
O        7.42574207      10.78169368      10.06646749  T        0
O       12.01650720      10.60502586      10.27236636  T        0
O       11.79184319      10.42287254      12.96464154  T        0
O        7.53580455      10.82767966      12.81256124  T        0
O        2.30395892      10.76632593       8.84601532  T        0
O        6.60781083       3.26933789       7.58745393  T        0
O       12.47980518       3.26426589       7.60515110  T        0
O        2.81237468      10.36199821      11.38864989  T        0
O        6.39421315      11.75894495       7.62628557  T        0
O       12.92660332      11.22225320       7.84757465  T        0
O        4.80727808      10.79751456       9.61514743  T        0
O       14.68244150      11.06498815       9.91966539  T        0
O       11.35047508       8.22602110      11.42676537  T        0
O        7.37785554       8.48493502      11.46578207  T        0
O        1.81256563      13.12607095       7.51498604  T        0
O        7.79232801       5.87582510      11.43856494  T        0
O        9.59888726      10.08131617      11.41087233  T        0
O       -0.06562362      11.25456519       7.92450123  T        0
O        5.74987656       6.81611238      12.87705822  T        0
O        5.63977767       6.91673965      10.16088232  T        0
O       14.20542527       7.21694270       7.59737966  T        0
O        4.61115357       6.91720932       7.68032012  T        0
Si       6.21687147      11.52791905       9.26545779  T        0
Si      13.13816131      11.46309716       9.44547929  T        0
Si       3.37697436      10.07668448       9.86271905  T        0
Si      11.22258498       9.86862404      11.51063325  T        0
Si       7.96265019      10.02700961      11.43031638  T        0
Si       1.52575196      11.49250792       7.60457629  T        0
Si       4.27308454       7.05557416       9.28454035  T        0
Si       6.61771945       7.03406042      11.47564739  T        0
H        5.61083456       0.52083913       2.07985367  F        0
H       13.50938118       0.51971906       2.07492992  F        0
H        5.61112307      13.75835362       2.07975607  F        0
H       13.50958039      13.75682243       2.07498241  F        0
H       13.51084140      13.75504172       5.44776650  F        0
H        5.62495998      13.75277707       5.44935724  F        0
H       13.50975252       0.52161770       5.44778410  F        0
H        5.62509051       0.52255101       5.44942550  F        0
H       17.28974254      11.12548174       7.01862795  F        0
H       17.28979000       3.14560285       7.02339196  F        0
H        1.81954193       3.15353441       6.98813474  F        0
H        1.83183800       3.14857954       0.53722786  F        0
H       17.29134854       3.14797220       0.53999843  F        0
H        1.83154049      11.12909684       0.54034962  F        0
H       17.29120144      11.12876736       0.54010345  F        0
H        6.35952436       2.97904956      -0.93427223  F        0
H       12.76076393       2.97683097      -0.93375646  F        0
H        6.36236324      11.29726414      -0.93275871  F        0
H       12.76174962      11.29928001      -0.93393629  F        0
H       14.60982961       7.13673871      -0.92783774  F        0
H        4.51175007       7.13509558      -0.92932085  F        0
H        5.61112307      13.75835362       9.62625607  F        0
H       13.50958039      13.75682243       9.62148241  F        0
H        3.36661743       4.89904760       9.62155888  F        0
H       12.44514575      11.11938908      13.17925925  F        0
H        6.67998430      11.11604137      13.18119228  F        0
H        6.35949513       2.97597070       8.47938261  F        0
H       12.76321398       2.97604733       8.47995589  F        0
H        3.19647477      10.11404518      12.25127207  F        0
H       15.20026252      10.29732969       9.62683702  F        0
H       12.12595522       7.65409943      11.30914176  F        0
H        2.56257806      13.76129914       7.54737584  F        0
H        7.80677964       4.90364681      11.30820371  F        0
H       -0.96427299      11.34215683       7.54753770  F        0
H        4.87489857       7.13453431      13.17640583  F        0
H       14.61405599       7.13800201       8.47661577  F        0
Fe      10.06201385       7.17105524       4.80204085  T        0
Fe       7.28944252       8.54814826       6.39266298  T        1
O        6.46393360       9.08846306       7.79474880  T        2
O        8.82249526       7.61909363       6.05462295  T        3
