147
Lattice="24.397 0.0 0.0 0.0 24.397 0.0 0.0 0.0 24.397" Properties=species:S:1:pos:R:3:move_mask:L:1:tags:I:1 i=41 E=-6943.8331748197 regions="_JSON [\"Active\"]" n_terminators=24 energy=-1045.2140399961788 pbc="F F F"
O        9.62933017      14.56278580      -0.06731207  T        0
O       12.29112500       9.50258320       2.53429085  T        0
O       14.86765061      21.02682110       6.17679109  T        0
O       12.17955452      15.65777239       8.86954835  T        0
O        9.32513139      18.21659674       3.53916502  T        0
O       15.64622214       9.43809216       6.14987219  T        0
O       18.32254978      14.84123907       8.87050758  T        0
O       21.06320873      12.16488322       3.45587484  T        0
O       20.95418475      15.76066458       0.06247533  T        0
O       18.22230508      20.83640062       2.43357803  T        0
O       14.73528660       9.54171491       0.06248477  T        0
O        9.65950751      12.27363903       2.43359874  T        0
O       21.05783178      14.84968061       6.14984276  T        0
O       15.65468397      12.17334027       8.87050887  T        0
O       18.33100954       9.43271021       3.45587585  T        0
O        9.46911816      15.62826225       6.17680215  T        0
O       14.83816669      18.31636047       8.86954367  T        0
O       12.27924530      21.17075922       3.53912616  T        0
O       15.93310419      20.86660019      -0.06729967  T        0
O       20.99330826      18.20483076       2.53427289  T        0
O       11.67719434      14.00969330       1.91772966  T        0
O       14.03681311      11.42779320       1.85908092  T        0
O       19.06813903      16.45910590       1.85909524  T        0
O       16.48619073      18.81877161       1.91773525  T        0
O       10.31247688      10.20186381       0.86347425  T        0
O       11.27952632      16.54907123       4.38718186  T        0
O       13.94681335      19.21641546       4.38719227  T        0
O       13.99510931      16.50080179       7.05511327  T        0
O       19.22680919      13.92077906       4.38656847  T        0
O       16.57514857      11.26911113       4.38660032  T        0
O       16.50913652      13.98676391       7.05685963  T        0
O       20.29406971      20.18347750       0.86343267  T        0
O       12.07417094      11.98267292       3.55307622  T        0
O       18.51321921      18.42173996       3.55308716  T        0
O       12.23324512       8.60936003       0.01413914  T        0
O        8.69117256      12.05357641      -0.06228926  T        0
O       12.06216451      14.87592309       6.27210154  T        0
O       11.92039052      18.57549260       2.86264169  T        0
O       15.61997892      18.43375914       6.27209365  T        0
O       18.44777638      15.59521116       6.27258795  T        0
O       18.45915231      12.03676811       2.70484653  T        0
O       14.90067500      12.04812841       6.27260659  T        0
O       18.44232768      21.80474723      -0.06231975  T        0
O       21.88656945      18.26269513       0.01411710  T        0
O       10.42911206      16.61219738       1.83502695  T        0
O       14.03673757      10.40421898       4.34484480  T        0
O       20.07838620      13.96493943       1.83434190  T        0
O       16.51389174      20.01781785       4.33370118  T        0
O       16.53097531      10.41756773       1.83435529  T        0
O       10.47811968      13.98200525       4.33370772  T        0
O       13.88367107      20.06678655       1.83502539  T        0
O       20.09169528      16.45920455       4.34485880  T        0
O       20.08903580      22.66816518       1.90405285  T        0
O        7.82778962      10.40684735       1.90407717  T        0
O       16.54774826      16.54279808       7.89091910  T        0
O       13.95311625      13.94816919       7.89095105  T        0
O       22.81574782      19.99437309       1.85736136  T        0
O       10.50154777       7.68016766       1.85734979  T        0
Al      10.86459646      15.28217227       0.86304641  T        0
Si      13.09841796      10.81133469       3.08313586  T        0
Si      19.66573439      15.23951617       0.91685108  T        0
Si      17.43601941      19.54880366       3.07194966  T        0
Si      15.25640873      10.83018896       0.91684447  T        0
Si      10.94713142      13.05989464       3.07194745  T        0
Al      15.21370938      19.63133788       0.86304797  T        0
Si      19.68458060      17.39751598       3.08314199  T        0
Si       9.10893471      11.23279158       1.28058348  T        0
Si      10.81847936      15.27622185       5.29352973  T        0
Si      13.01082305      19.74867962       3.13515598  T        0
Si      15.24021800      17.45633152       7.51954874  T        0
Si      19.69180705      15.19798457       5.30248496  T        0
Si      17.48117571      10.79764861       3.10936848  T        0
Si      15.25885587      13.03838079       7.52296840  T        0
Si      21.49954748      19.18064629       1.31279499  T        0
Si      11.31529359       8.99636705       1.31281699  T        0
Si      15.29793230      10.80410957       5.30250099  T        0
Si      19.69828404      13.01473721       3.10935199  T        0
Si      17.45752356      15.23704692       7.52295336  T        0
Si      15.21967905      19.67745052       5.29352826  T        0
Si      10.74721633      17.48504792       3.13515736  T        0
Si      13.03958138      15.25569516       7.51955976  T        0
Si      19.26312573      21.38700291       1.28055221  T        0
O       14.76329107      12.16930024      -2.62446225  T        0
O       15.87073091      18.30864169      -2.60293450  T        0
O       12.18726289      14.62516618      -2.60291295  T        0
O       18.32664646      15.73262786      -2.62443255  T        0
O       14.09615206      13.97600374      -0.78601008  T        0
O       16.51991310      16.39977652      -0.78601611  T        0
O       13.05836913      10.21178948      -1.92511042  T        0
O       10.12473481      12.91209270      -2.11634863  T        0
O       17.58381508      20.37112345      -2.11631443  T        0
O       20.28415604      17.43757718      -1.92515877  T        0
O       12.34272721      15.63152695      -0.07327197  T        0
O       15.70545211      12.02481884      -0.10137345  T        0
O       18.47108567      14.79045920      -0.10134375  T        0
O       14.86438649      18.15320524      -0.07328499  T        0
O       12.23508153      12.13904124      -3.52171288  T        0
O       18.35685364      18.26081541      -3.52175454  T        0
O       16.59066681      13.90525800      -1.77088801  T        0
O       14.11859713      10.42132923      -4.42679240  T        0
O       22.77758287      16.40181067      -1.73204757  T        0
O       16.53510352      19.94358697      -4.56301858  T        0
O        7.65270224      13.94576331      -1.65666346  T        0
O       14.10663115      16.38928284      -1.98063794  T        0
O       10.55233892      13.96078313      -4.56303464  T        0
O       16.55005192      22.84314983      -1.65667921  T        0
O       20.07456535      16.37730176      -4.42681555  T        0
O       14.09406795       7.71832895      -1.73206890  T        0
Si      15.31375015      12.99120662      -1.33892081  T        0
Si      15.29858267      17.36477147      -1.41796713  T        0
Si      13.13114939      15.19732909      -1.41796051  T        0
Si      17.50471644      15.18217224      -1.33890533  T        0
Si      13.51847524       9.01237980      -0.90486593  T        0
Si      11.24834558      13.39890415      -3.18681883  T        0
Si      17.11299186      21.46293473      -0.96674391  T        0
Si      19.27731861      16.97559216      -3.12789932  T        0
Si       9.03295745      13.38289993      -0.96674019  T        0
Si      13.52032644      11.21860034      -3.12788055  T        0
Si      21.48353597      16.97746053      -0.90488085  T        0
Si      17.09699936      19.24755359      -3.18682548  T        0
H       14.01033133      21.15748981       6.62630180  F        0
H       11.67124922      16.48560174       8.95913012  F        0
H        9.33839640      18.82463975       4.28720704  F        0
H       16.48559112       9.33840607       6.62628668  F        0
H       18.82464116      14.01032609       8.95915608  F        0
H       21.15750258      11.67126816       4.28721909  F        0
H       21.15748967      14.01033142       6.62630180  F        0
H       16.48560162      11.67124930       8.95913012  F        0
H       18.82463962       9.33839646       4.28720704  F        0
H        9.33840600      16.48559124       6.62628668  F        0
H       14.01032599      18.82464129       8.95915608  F        0
H       11.67126808      21.15750273       4.28721909  F        0
H       20.83112530      23.15241223       1.48839475  F        0
H        7.34352333       9.66479174       1.48837704  F        0
H       23.15241204      20.83112542       1.48839475  F        0
H        9.66479163       7.34352337       1.48837704  F        0
H       13.68673308       9.66480596      -4.85513656  F        0
H       23.15240156      16.80916493      -2.53384338  F        0
H       16.80913871      20.83112323      -4.85512183  F        0
H        7.34352146      13.68671965      -2.53387758  F        0
H        9.66480591      13.68673318      -4.85513656  F        0
H       16.80916481      23.15240172      -2.53384338  F        0
H       20.83112308      16.80913882      -4.85512183  F        0
H       13.68671953       7.34352150      -2.53387758  F        0
Fe      16.00017414      16.87638170       1.42626719  T        0
Fe      13.61955584      14.49570176       1.42626689  T        1
O       15.18508652      15.31083003       1.91878657  T        2
