147
Lattice="24.397 0.0 0.0 0.0 24.397 0.0 0.0 0.0 24.397" Properties=species:S:1:pos:R:3:move_mask:L:1:tags:I:1 i=41 E=-6943.8331748197 regions="_JSON [\"Active\"]" n_terminators=24 energy=-1044.5914316791848 pbc="F F F"
O        9.47853331      14.56496857       0.06812015  T        0
O       12.28142677       9.55942442       2.52950362  T        0
O       14.82645206      20.92025242       6.13995691  T        0
O       12.24361936      15.75071459       8.78525137  T        0
O        9.66228004      18.31407556       3.85981229  T        0
O       15.62353154       9.44779576       6.18854877  T        0
O       18.35969411      14.85897267       8.86492866  T        0
O       21.09497281      12.22137167       3.48311580  T        0
O       21.03761918      15.63416527      -0.06804021  T        0
O       18.31342261      21.07027200       2.63333049  T        0
O       14.65588640       9.49039175      -0.05301013  T        0
O        9.53846726      12.30496034       2.48662660  T        0
O       21.07917184      14.84927491       6.13354479  T        0
O       15.65955418      12.17326320       8.85244398  T        0
O       18.52087047       9.47593902       3.38508163  T        0
O        9.58990405      15.92788073       6.07293165  T        0
O       14.79074721      18.31356016       8.72234826  T        0
O       12.17190487      20.90657971       3.58424925  T        0
O       15.65493464      21.04402538      -0.02870690  T        0
O       21.09746176      18.28527297       2.62083985  T        0
O       11.48020226      14.19403280       2.15527765  T        0
O       13.99671815      11.53577160       1.89551029  T        0
O       13.05768079      20.26673270       8.06717871  T        0
O       10.27057830      17.46617347       8.16219652  T        0
O       10.21033536      20.42051318       5.40067262  T        0
O       19.25784876      16.49579553       1.77991175  T        0
O       16.51838385      19.23064718       1.78523134  T        0
O       10.26810491      10.27055481       0.92359912  T        0
O       11.45776386      16.32333436       4.18766032  T        0
O       14.09995530      19.17043939       4.26637312  T        0
O       14.07513270      16.44972474       6.94968554  T        0
O       19.27053353      14.02741493       4.30298770  T        0
O       16.65128384      11.16768156       4.39992624  T        0
O       16.56278544      13.98097144       7.05056515  T        0
O       11.98235446      12.00676297       3.57920566  T        0
O       12.31342976      21.85200706       6.08355810  T        0
O       12.28024256      18.28884741       9.64955838  T        0
O        8.68429602      18.44199237       6.31202659  T        0
O       18.49778455      18.46044981       3.35332699  T        0
O       12.10810344       8.66444508      -0.00281164  T        0
O        8.61544388      12.05855531      -0.03973379  T        0
O       12.07701636      14.86622578       6.27253051  T        0
O       12.13016574      18.38029301       2.74518368  T        0
O       15.71001729      18.39474893       6.20861743  T        0
O       18.48886810      15.61094205       6.25990528  T        0
O       18.47883629      12.08827688       2.73745296  T        0
O       14.95725156      12.06828506       6.22570298  T        0
O       10.27544964      16.70601207       1.82807243  T        0
O       14.02474443      10.46150818       4.34436271  T        0
O       14.12939641      22.75537346       7.86399575  T        0
O       10.53836693      16.48852511      10.66453795  T        0
O        7.74469922      19.99857983       4.32088274  T        0
O       10.54125612      22.85578665       4.30458017  T        0
O       20.08673078      13.94823828       1.73749983  T        0
O       16.61496769      20.05960394       4.34414367  T        0
O       16.65661481      10.37905987       1.82793297  T        0
O       10.34881339      13.89189119       4.50730055  T        0
O        7.77934237      16.41519988       7.86129732  T        0
O       14.10978383      20.04807035      10.56252539  T        0
O       13.95535316      20.04264381       1.73620637  T        0
O       20.09019087      16.56762060       4.35272103  T        0
O        7.76136812      10.42468270       1.93478937  T        0
O       16.58825274      16.53034063       7.88195095  T        0
O       13.99142607      13.93233169       7.85919808  T        0
O       10.43675765       7.75716716       1.91984041  T        0
Al      10.76784456      15.31639692       0.89400890  T        0
Si      13.06695608      10.88004165       3.09195626  T        0
Si      13.57076974      21.44715313       7.04811165  T        0
Si      11.33026888      17.00496446       9.32317322  T        0
Si       9.07481478      19.32358869       4.99258610  T        0
Si      19.70338811      15.24571111       0.82198307  T        0
Si      17.49469908      19.69438198       3.01766277  T        0
Al      15.29975469      10.76286084       0.87487992  T        0
Si      10.81240774      13.06240000       3.15480495  T        0
Si       9.07898680      17.08155951       7.12274322  T        0
Si      13.54981481      19.24067575       9.24975601  T        0
Si      11.30866819      21.50897235       4.84668482  T        0
Si      15.27463771      19.68484631       0.82467497  T        0
Si      19.73292595      17.45016118       3.02400887  T        0
Si       9.03336944      11.26026709       1.31303127  T        0
Si      10.82405007      15.22560577       5.30909299  T        0
Si      13.10004220      19.65792370       3.07373190  T        0
Si      15.29991698      17.42665526       7.44818691  T        0
Si      19.73477589      15.25715335       5.26741170  T        0
Si      17.56144759      10.78027973       3.07719232  T        0
Si      15.30857112      13.02951869       7.49037118  T        0
Si      11.27013819       9.04960008       1.33548447  T        0
Si      15.32889886      10.79144946       5.27706511  T        0
Si      19.73357070      13.05785021       3.06936862  T        0
Si      17.51109920      15.23609967       7.50460739  T        0
Si      15.32336592      19.64635859       5.24510999  T        0
Si      10.81203349      17.48911077       3.09670520  T        0
Si      13.10917748      15.24796706       7.49207706  T        0
O       14.70099140      12.15464183      -2.60130868  T        0
O       15.65875109      18.32082272      -2.78280103  T        0
O       12.18264383      14.69102864      -2.57574206  T        0
O       18.35657894      15.63936780      -2.77508646  T        0
O       14.09342590      14.09506410      -0.80498914  T        0
O       16.53186421      16.51196289      -0.96982827  T        0
O       13.00407939      10.08054269      -2.07045164  T        0
O       10.11537630      13.00176719      -2.02100875  T        0
O       12.15518775      15.71203534      -0.07672755  T        0
O       15.60876362      12.26725298      -0.04370330  T        0
O       18.44077637      14.88587217      -0.16036593  T        0
O       14.92210473      18.43995411      -0.17006011  T        0
O       12.17607506      12.18194550      -3.45097600  T        0
O       16.56495781      13.97977967      -1.87120130  T        0
O       14.01086089      10.52178420      -4.52910682  T        0
O        7.59441492      13.94814349      -1.63911059  T        0
O       13.98907100      16.54761223      -1.83680065  T        0
O       10.49970457      14.02937830      -4.48786486  T        0
O       13.88832248       7.54247832      -1.61392536  T        0
Si      15.28461166      13.08843666      -1.41409237  T        0
Si      15.27867725      17.46396337      -1.42788556  T        0
Si      13.04862573      15.30663683      -1.33241520  T        0
Si      17.48909462      15.26664226      -1.42678947  T        0
Si      13.42747607       8.96253980      -0.93003854  T        0
Si      11.22476770      13.47158783      -3.12160754  T        0
Si       8.96518447      13.41082433      -0.91041929  T        0
Si      13.45349810      11.21729674      -3.14844034  T        0
H       16.48559112       9.33840607       6.62628668  F        0
H       18.82464116      14.01032609       8.95915608  F        0
H       21.15750258      11.67126816       4.28721909  F        0
H       21.15749781      16.48550533      -0.52720743  F        0
H       18.82463422      21.15752504       1.81198193  F        0
H       21.15748967      14.01033142       6.62630180  F        0
H       16.48560162      11.67124930       8.95913012  F        0
H       18.82463962       9.33839646       4.28720704  F        0
H       16.48550522      21.15749796      -0.52720744  F        0
H       21.15752488      18.82463433       1.81198193  F        0
H       13.68673605      23.15239550       8.63276462  F        0
H        9.66477675      16.80915558      10.95402362  F        0
H        7.34351903      20.83116256       4.61081863  F        0
H        9.66481601      23.15243056       4.61081458  F        0
H        7.34350493      16.80917637       8.63275504  F        0
H       13.68672539      20.83112809      10.95404502  F        0
H        7.34352333       9.66479174       1.48837704  F        0
H        9.66479163       7.34352337       1.48837704  F        0
H       16.48557283      18.82464187      -2.86023677  F        0
H       18.82464171      16.48557294      -2.86023676  F        0
H       13.68673308       9.66480596      -4.85513656  F        0
H        7.34352146      13.68671965      -2.53387758  F        0
H        9.66480591      13.68673318      -4.85513656  F        0
H       13.68671953       7.34352150      -2.53387758  F        0
Fe      12.96993072      15.42513980       3.12431960  T        0
Fe      14.49630221      13.49213940       1.31492239  T        1
O       14.55994819      14.87192758       2.52645462  T        2
