138
Lattice="24.397 0.0 0.0 0.0 24.397 0.0 0.0 0.0 24.397" Properties=species:S:1:pos:R:3:move_mask:L:1:tags:I:1 i=41 E=-6943.8331748197 regions="_JSON [\"Active\"]" n_terminators=32 energy=-931.7061901032818 pbc="F F F"
O       21.68534476       2.56366211       0.07304433  T        0
O       21.86982963       5.98430589       3.64366240  T        0
O       15.68498143       9.80451714       6.23667319  T        0
O       20.83009928      12.34704294       3.63127512  T        0
O       21.00576761       3.53609124      12.47137886  T        0
O       15.56476676       6.23344812       9.67752752  T        0
O       21.84011014      -0.04770779       2.56188786  T        0
O       18.28179656       9.80866651       3.56390977  T        0
O       21.80903690       3.51870967       6.04204256  T        0
O       18.39445504       3.31592866       9.64871914  T        0
O       23.74593647       1.68821762       1.84167972  T        0
O       22.68269377       5.22876709       7.96905601  T        0
O       22.82241382       8.05595609       5.49416921  T        0
O       17.68910230      10.49919773       7.92503766  T        0
O       20.15306841      10.49449726       5.37959462  T        0
O       23.71303608       4.18665042       4.27437835  T        0
O       18.87067543      14.14744383       4.26211053  T        0
O       16.28090307      11.47456035       4.18020839  T        0
O       17.61097796       7.83384578      10.58119385  T        0
O       20.09459831       5.21927221      10.57290895  T        0
O       20.85244352       5.88258667       6.05385552  T        0
O       18.17189863       8.81448715       6.03017406  T        0
O       22.02716728      12.34475468       6.07502423  T        0
O       20.97076134       0.00635757       0.02445895  T        0
O       24.32768839       2.61849819       6.35303997  T        0
O       24.37660207       6.21795874       2.64228575  T        0
O       18.29786549      12.28145637       2.59863454  T        0
O       14.60211746      12.28318038       6.14114966  T        0
O       18.14759118       5.92305919       8.90562102  T        0
O       21.98825766       6.09067257      12.30500982  T        0
O       22.67539087       4.29982982       1.80002611  T        0
O       13.81146100      10.41335500       4.42316649  T        0
O       22.64946711       4.36926095      10.50083347  T        0
O       20.07202917       8.02433555       4.37883072  T        0
O       16.61612288       8.00301541       8.04336194  T        0
O       22.67644477      10.50302111       4.37896268  T        0
O       20.20440581      14.07540126       1.82839114  T        0
O       16.57872755      10.41077426       1.68222291  T        0
O       22.78251709       1.67860333       4.36107201  T        0
O       20.14899061       4.31147259       8.04996637  T        0
Al      23.35211446       2.98457523       0.77127943  T        0
Si      23.62000329       4.85989644       9.28194631  T        0
Al      21.45875929       7.17647307       4.93160476  T        0
Si      17.00857455       9.26870369       7.05950953  T        0
Si      21.40419154      11.42373550       4.86501927  T        0
Si      23.20261379       0.76289722       3.04199740  T        0
Si      19.18058067       9.28353269       4.82545208  T        0
Si      21.39766139       4.75521032       7.10921671  T        0
Si      23.67382345       9.29675804       4.88618937  T        0
Si      23.19392859       2.97816746       5.24704472  T        0
Si      17.33963249      11.01383464       3.00921464  T        0
Si      19.17819880       4.72420299       9.31105218  T        0
Si      15.12001169      10.99823641       5.24186033  T        0
Si      19.55571968      13.21834485       3.07592778  T        0
Si      23.19326414       5.19964527       3.08190016  T        0
Si      21.39843673       4.80007519      11.48428382  T        0
Si      16.97707072       7.00820929       9.29795750  T        0
O       24.63989480       3.66380771       8.81418150  T        0
O       24.55793850       8.73725190       3.60346731  T        0
O       26.33646602       6.72307711       4.22829415  T        0
O       26.30664120       4.25081132       6.73456806  T        0
O       24.70420048       9.93410079       6.00782665  T        0
O       24.43765929       6.18795652       9.79048123  T        0
O       26.22569332       8.00725514       1.76908504  T        0
O       26.28682873       1.80987314       8.05265599  T        0
Si      25.39647536       7.44124921       3.07336438  T        0
Si      25.41656403       3.08453749       7.48811245  T        0
O       24.69158161       2.42036531      -2.81648667  T        0
O       26.24406937       1.79758307      -0.68474875  T        0
O       24.35598999      -0.15278216      -3.59491074  T        0
O       26.50859884       4.18257735      -2.05836880  T        0
Si      25.47608400       3.02313063      -1.48993082  T        0
O       24.61535045      -2.72100653       2.42593923  T        0
O       26.29958538      -0.65255045       1.85214670  T        0
O       24.44840198      -3.70675262      -0.08281785  T        0
O       26.33282263      -1.99074534       4.26788595  T        0
Si      25.41890479      -1.41669101       3.02077935  T        0
O       17.99688463       2.45229708      -3.42876798  T        0
O       20.99688168       2.53082358      -6.37775494  T        0
O       19.98867428       0.95217317      -4.46789507  T        0
O       22.67969905       0.97935191      -1.80003902  T        0
O       24.43415420       3.59424747      -0.40064405  T        0
O       18.35376235      -0.12505588      -2.59892151  T        0
O       21.89604752      -0.05429882      -6.11609136  T        0
O       20.07010750       1.67269333      -1.88297553  T        0
O       22.58934403       1.68819970      -4.35706397  T        0
Si      19.08546675       1.24186848      -3.13210538  T        0
Si      21.34120269       1.28289896      -5.34432355  T        0
Si      23.60097553       1.23908785      -3.14494474  T        0
Si      21.33586765       1.27540686      -0.92934947  T        0
O       18.00678313      -3.43176518       2.45075036  T        0
O       21.00138790      -6.41349054       2.52037861  T        0
O       22.65122935      -1.89454792       0.80930810  T        0
O       20.00493541      -4.47887278       0.96571241  T        0
O       24.34962572      -0.29307171       3.54004760  T        0
O       18.36758290      -2.62745051      -0.13245257  T        0
O       21.90890791      -6.12326821      -0.05265198  T        0
O       20.09833979      -1.89937486       1.67623674  T        0
O       22.61182563      -4.39215132       1.71306911  T        0
Si      21.38566627      -0.96997593       1.27609500  T        0
Si      21.35296902      -5.36113097       1.29060662  T        0
Si      23.59504251      -3.17518377       1.21982084  T        0
Si      19.10279756      -3.13755694       1.24495031  T        0
H       20.10951519       3.23923103      12.72546793  F        0
H       15.43757911       5.57209275      10.38640946  F        0
H       17.77043311       3.23924387      10.38640412  F        0
H       17.22544067      10.92750153       8.65411313  F        0
H       19.36965547      14.75328399       4.82834093  F        0
H       17.22544070       8.65411150      10.92750362  F        0
H       21.54216027      12.99764967       6.60187561  F        0
H       15.05290853      12.70105704       6.89848521  F        0
H       21.54216028       6.60187434      12.99765198  F        0
H       13.44269068      10.71000821       3.56560630  F        0
H       19.78591980      14.73191782       1.24430354  F        0
H       15.76397041      10.70999753       1.24433830  F        0
H       26.95194123       7.17131746       4.82834527  F        0
H       26.95194124       4.82834452       7.17131883  F        0
H       25.19630608       9.34383456       6.60185911  F        0
H       25.19630604       6.60185806       9.34383627  F        0
H       26.93058105       7.58756876       1.24433203  F        0
H       26.93058086       1.24433163       7.58757011  F        0
H       26.95192867       1.27083937      -1.07240246  F        0
H       25.19622735      -0.50276655      -3.24494277  F        0
H       26.93057835       4.85486043      -1.48866112  F        0
H       26.95192866      -1.07240650       1.27083969  F        0
H       25.19622853      -3.24494603      -0.50276481  F        0
H       26.93057847      -1.48866524       4.85486109  F        0
H       17.77043356       2.85994955      -4.28747201  F        0
H       20.10952426       2.85994950      -6.62656333  F        0
H       17.49833355      -0.50278089      -2.85477948  F        0
H       21.54221652      -0.50278066      -6.89866328  F        0
H       17.77043326      -4.28747560       2.85995000  F        0
H       20.10952426      -6.62656664       2.85995001  F        0
H       17.49833238      -2.85478383      -0.50277915  F        0
H       21.54221602      -6.89866750      -0.50277915  F        0
Fe      20.41283557       4.61357089       4.44082893  T        0
Fe      20.75575376       3.38071115       1.64011003  T        1
O       19.68619896       3.66076995       3.07116596  T        2
