139
Lattice="19.123 0.0 0.0 0.0 14.277 0.0 0.0 0.0 7.5465" Properties=species:S:1:pos:R:3:move_mask:L:1:tags:I:1 i=128 E=-2603.9155142701 regions="_JSON [\"Active\"]" n_terminators=34 energy=-924.8380682395475 pbc="F F F"
O       15.27325616       8.48222777       5.58726469  T        0
O       13.16781698       1.17503543       1.43461918  T        0
O       15.62288348       5.86996739       5.48990070  T        0
O       12.94456405      13.19126578       1.51044770  T        0
O       12.67218204      13.28227155       5.61310496  T        0
O       15.64660310       5.99449568       1.94452124  T        0
O       12.74205629       1.12244026       5.49340871  T        0
O       15.45049399       8.57420611       1.66118371  T        0
O       17.13317149      10.60161891       6.10054051  T        0
O       11.88831497       3.39410750       2.50695570  T        0
O       17.10510415       3.36378667       6.24415788  T        0
O       11.86150906      10.84218201       2.49715063  T        0
O       11.64342004      10.81830456       5.15970147  T        0
O       16.96815064       3.99601373       0.89762600  T        0
O       11.65606136       3.52729991       5.15314335  T        0
O       16.93179822      10.67660475       1.05561418  T        0
O       16.27827814      10.22801972       3.61541209  T        0
O       12.47366550       3.26649744      -0.04606254  T        0
O       16.38433789       4.22099026       3.58032420  T        0
O       12.47963330      11.03061435      -0.03644126  T        0
O       14.28340792      11.21008217       5.59539948  T        0
O       14.44916338       3.52101636       1.79551436  T        0
O       14.30680107       3.29792122       5.52414434  T        0
O       14.42749035      11.02582345       1.87700550  T        0
O       11.46593616       8.49993961       3.79260410  T        0
O       11.35441581       5.77852202       3.64954704  T        0
O       17.33257734      13.15758801      -0.02520195  T        0
O        9.50002129      10.38229530       3.52867608  T        0
O        9.48022057       3.82584072       3.54820127  T        0
O       13.19027921       6.92381685       5.13258469  T        0
O       13.30197925       7.14553427       2.42970833  T        0
O       14.11601592       6.98169289      -0.09828140  T        0
Al      15.58420174      10.15505153       5.29642912  T        0
Si      12.99197640       2.81734244       1.45269806  T        0
Al      15.82921869       4.07213536       5.30758438  T        0
Si      12.92588698      11.53699615       1.47136611  T        0
Si      12.78937671      11.66604540       5.99473270  T        0
Si      15.83236713       4.32035751       2.04551357  T        0
Si      12.86239250       2.72312688       5.94962024  T        0
Si      15.77230682      10.13761351       2.05347410  T        0
Si      11.10481137      10.11690899       3.76791119  T        0
Si      11.08509849       4.14782535       3.73946291  T        0
Si      17.55579353      11.53003871      -0.20414726  T        0
Si      14.59517178       7.08096735       5.97087660  T        0
Si      14.59963823       7.20539586       1.45596300  T        0
Si      12.31994530       7.09841100       3.76172065  T        0
O       21.52667652      11.05329526       9.01066769  T        0
O       20.99593901      13.10579807       7.33903835  T        0
O       19.20555359       2.96322340       7.98143054  T        0
O       19.22613357      11.23520207       7.57444208  T        0
O       24.08231919       7.26267290       7.61291983  T        0
Si      20.86980271      11.47386493       7.54514548  T        0
O       22.63667512       8.29584585       5.56223117  T        0
O       22.68375743       5.60703553       6.08988133  T        0
O       22.47361304       5.86982316       2.12076290  T        0
O       22.58621109       8.40323851       1.74227634  T        0
O       21.61207672      10.67280385       6.29993718  T        0
O       21.45733667      10.74901329       1.21443227  T        0
O       22.51315489      10.27321787       3.71011143  T        0
O       24.26765039      10.28274807       5.76045973  T        0
O       24.11670279      10.43064973       1.47009952  T        0
O       26.84653697       8.39900054       3.83390639  T        0
O       20.92170683      13.16172628       0.06456173  T        0
O       26.94649759       5.87364494       3.64923076  T        0
O       19.17863813      11.26752496      -0.20324377  T        0
O       24.87817202       6.91810736       5.08156172  T        0
O       24.86370769       7.11659008       2.41700956  T        0
O       23.91063718       6.78849100      -0.05187239  T        0
Si      22.70962806       9.92373581       5.31772043  T        0
Si      22.63869745      10.00524574       2.08675973  T        0
Si      20.81009441      11.52444582      -0.09301867  T        0
Si      23.55860039       7.01546387       6.05745876  T        0
Si      23.47830384       7.04733053       1.53063798  T        0
Si      25.83970971       7.09921019       3.74945091  T        0
O       21.55902235      11.08515279      -1.50675470  T        0
O       12.81112967       1.19783388       9.71324731  T        0
O       12.84094152      13.06439206       9.78707152  T        0
O       15.51743995       5.79971401       9.66912243  T        0
O       15.51134329       8.45322419       9.48781740  T        0
O       11.53402447       3.53509989       9.91166766  T        0
O       11.54805336      10.73493287       9.91607567  T        0
O       16.79121236       3.52399500       8.86744677  T        0
O       16.81661552      10.71927457       8.77462622  T        0
O       16.25629244      10.30437459      11.34150361  T        0
O       12.61469169       2.86853391       7.57613911  T        0
O       16.26147552       3.84748747      11.39121882  T        0
O       12.53359644      11.45686679       7.60647569  T        0
O       14.22991381       3.48689956       9.63021942  T        0
O       14.25939526      10.79445665       9.56484540  T        0
O       17.32823863       1.08731222       7.76134543  T        0
O       17.22202471      13.04371390       7.37883286  T        0
O       13.13810275       7.15619130       9.83483915  T        0
O       14.32060150       6.95190254       7.57094968  T        0
Si      12.82088517       2.77692221       9.20394847  T        0
Si      12.82372049      11.50718486       9.21782049  T        0
Si      15.69455610       4.17065792       9.87638811  T        0
Si      15.70174565      10.05993855       9.79771059  T        0
Si      17.59948525       2.73406738       7.65451786  T        0
Si      17.58692727      11.42715774       7.48222719  T        0
Si      14.64414378       7.09245116       9.16310850  T        0
O       16.84938122      11.02315886      -1.62574816  T        0
H       13.50938118       0.51971906       2.07492992  F        0
H       13.50958039      13.75682243       2.07498241  F        0
H       13.51084140      13.75504172       5.44776650  F        0
H       13.50975252       0.52161770       5.44778410  F        0
H       17.29134854       3.14797220       0.53999843  F        0
H       12.76076393       2.97683097      -0.93375646  F        0
H       12.76174962      11.29928001      -0.93393629  F        0
H       16.56020813      13.76127004      -0.00066979  F        0
H        8.59739021      10.07362933       3.76217937  F        0
H        8.59637561       4.20354031       3.76204115  F        0
H       14.60982961       7.13673871      -0.92783774  F        0
H       22.00483182      10.29715766       9.41435165  F        0
H       21.68557806      13.76129914       7.54737584  F        0
H       20.08726577       2.93486642       7.54597012  F        0
H       23.63198861       7.14016697       8.47499567  F        0
H       22.48364390       4.89097090       5.45283813  F        0
H       22.48961743       4.89904760       2.07505888  F        0
H       24.76092223      11.11473374       5.84604825  F        0
H       24.75845825      11.12041654       1.68709931  F        0
H       26.93014812       9.37398274       3.76239518  F        0
H       21.68557806      13.76129914       0.00087584  F        0
H       26.92977964       4.90364681       3.76170371  F        0
H       23.63475007       7.13509558      -0.92932085  F        0
H       22.00608000      10.28902905      -1.85963567  F        0
H       13.50938118       0.51971906       9.62142992  F        0
H       13.50958039      13.75682243       9.62148241  F        0
H       11.39369377       3.98884644      10.77146895  F        0
H       11.39439525      10.28733182      10.77116771  F        0
H       15.92688062      10.11457984      12.25007275  F        0
H       15.92754156       4.15729643      12.25107281  F        0
H       16.56036088       0.51548555       7.54573787  F        0
H       16.56020813      13.76127004       7.54583021  F        0
H       12.88235039       7.13795337      10.76981689  F        0
H       16.24044124      10.28985035      -1.86101282  F        0
Fe      16.79035687       6.47875095       3.87660178  T        0
Fe      18.15779481       9.62683939       4.39339189  T        1
O       18.01121570       7.83631511       4.08316534  T        2
O       19.59462451      10.38743101       4.00388393  T        3
