141
Lattice="19.123 0.0 0.0 0.0 14.277 0.0 0.0 0.0 7.5465" Properties=species:S:1:pos:R:3:move_mask:L:1:tags:I:1 i=128 E=-2603.9155142701 regions="_JSON [\"Active\"]" n_terminators=32 energy=-955.4442245897803 pbc="F F F"
O        5.94324719       1.10582763       1.37254019  T        0
O       15.90689441       8.42021733       5.86549526  T        0
O       13.04959952       1.11373967       1.45281654  T        0
O        3.52132073       8.46502470       5.78197887  T        0
O        6.01561005      13.16106701       1.42303140  T        0
O       15.81404957       5.72130433       5.83614059  T        0
O       12.87314474      13.01334551       2.04635928  T        0
O        3.48498635       5.78152327       5.83380506  T        0
O       13.43884479      13.15410809       6.21104619  T        0
O        3.40185108       5.80803579       1.69134191  T        0
O        6.07263265      13.16306013       6.08430600  T        0
O       15.56240050       5.81566371       1.97012221  T        0
O       13.01813517       1.13094437       6.03197756  T        0
O        3.37708935       8.49905740       1.70953216  T        0
O        6.07533301       1.11481754       6.08425149  T        0
O       15.73766534       8.49606754       1.75231659  T        0
O        7.21549826       3.31397414       2.41595982  T        0
O       17.24173444      10.74763792       6.11961672  T        0
O       12.00299410       3.41803265       2.47846121  T        0
O        1.94499010      10.62738759       6.18194595  T        0
O        7.20650531      10.92883042       2.46326159  T        0
O       17.10705913       3.34772568       6.08668685  T        0
O       11.88849904      10.50243766       2.15667199  T        0
O        1.95922634       3.56748149       6.11049231  T        0
O       12.07246440      11.12491695       4.98959191  T        0
O        1.94165737       3.55473630       1.42221954  T        0
O        7.16708949      10.86438734       5.08514584  T        0
O       17.17054116       3.77335089       1.28642595  T        0
O       11.81234544       3.40097473       5.10506112  T        0
O        1.94949196      10.78464919       1.44963612  T        0
O        7.26317810       3.43300058       5.17519195  T        0
O       17.09875345      10.78353612       1.35977263  T        0
O        6.65445509       3.26091133      -0.06115778  T        0
O       16.15332601      10.13370734       3.80698830  T        0
O       12.49705571       3.26658165      -0.04491486  T        0
O        3.01040494      10.15457096       3.78820288  T        0
O        6.63939368      11.01912899      -0.04492533  T        0
O       16.13790976       4.00553194       3.77013211  T        0
O       12.80434104      11.39541346      -0.14872872  T        0
O        3.03592812       4.15513055       3.76314725  T        0
O        4.62048883       3.41270314       1.73354733  T        0
O       14.54685739      10.72303617       5.88261593  T        0
O       14.56268986       3.32135749       1.71684988  T        0
O        4.59229321      10.93616619       5.80323503  T        0
O        4.62445612      10.87949818       1.78484865  T        0
O       14.41759334       3.43287745       5.72150880  T        0
O       14.50776956      10.87326538       1.82965721  T        0
O        4.63284593       3.34862848       5.75915377  T        0
O       11.64752998       8.42914710       3.85993845  T        0
O        7.44822406       8.57478616       3.72088421  T        0
O       11.87596709       5.75113696       3.78743295  T        0
O       17.31084159      13.12683682      -0.03951539  T        0
O        7.64499400       5.95913819       3.59161437  T        0
O        9.46012838      10.29948285       3.78796995  T        0
O        9.71780247       4.36371280       3.57209874  T        0
O       13.75292904       7.16516749       5.00677293  T        0
O        5.71977362       7.06830714       5.12817113  T        0
O        5.56356192       7.17666673       2.45916829  T        0
O       13.39132702       7.37543250       2.30022658  T        0
O       14.45458589       7.05117114      -0.10564706  T        0
O        4.95630595       7.18983153      -0.06605500  T        0
Si       6.09928964       2.76195494       1.40614742  T        0
Si      15.93633513      10.01605946       5.43380060  T        0
Si      13.05255971       2.76433766       1.41408312  T        0
Si       3.28000907      10.04592648       5.40365740  T        0
Si       6.09439506      11.50635241       1.42577321  T        0
Si      15.85456784       4.14129223       5.37862050  T        0
Si      13.03902056      11.47812591       1.46638879  T        0
Si       3.29805277       4.20628162       5.38287670  T        0
Si      13.12923041      11.52733604       6.13602412  T        0
Si       3.27000586       4.22544839       2.14008088  T        0
Si       6.09479337      11.50726003       6.12376524  T        0
Si      15.85477306       4.21013526       2.17303197  T        0
Si      12.96515612       2.78153860       6.10409973  T        0
Si       3.25437515      10.07364863       2.16790106  T        0
Si       6.13889613       2.77852994       6.11980051  T        0
Si      15.88786701      10.07414385       2.19957684  T        0
Al      11.18797442      10.18784810       3.85959157  T        0
Si       7.85215756      10.17815876       3.76759684  T        0
Si      11.34676389       4.18500707       3.75584095  T        0
Si      17.57735178      11.48783840      -0.06295922  T        0
Al       7.89972987       4.13706437       3.75751599  T        0
Si      14.96804491       7.10246373       6.10356717  T        0
Si       4.39861123       7.11447668       6.10120346  T        0
Si       4.29032060       7.16047734       1.43907649  T        0
Si      14.83131432       7.17359423       1.46804425  T        0
Si      12.67641693       7.17023782       3.81731640  T        0
Si       6.55755041       7.21060077       3.74204063  T        0
O       19.17374424      11.22296873      -0.35028624  T        0
O        6.64085094       3.27097205       7.60676260  T        0
O       12.44548776       3.23097136       7.59552952  T        0
O        6.65006474      11.03312463       7.59490176  T        0
O       12.48614653      11.06032302       7.58065200  T        0
O       14.24064178       7.08307098       7.57737828  T        0
O        4.99935589       7.14927687       7.63329436  T        0
O       15.52482161       8.46235727      -2.10321944  T        0
O       15.75192268       5.86404414      -2.21493169  T        0
O       12.83163145      13.07416772      -2.26599715  T        0
O       16.74633601      10.74513057      -1.27952493  T        0
O       11.56964391      10.71243120      -2.37712540  T        0
O       16.37919807      10.31751351      -3.86747981  T        0
O       14.27074753      10.78965067      -2.28907941  T        0
O       13.21817389       6.98789905      -2.33904506  T        0
Si      15.73666838      10.06907572      -2.37201190  T        0
Si      12.89353390      11.49428237      -1.78659998  T        0
Si      14.74545525       7.07652541      -1.72262496  T        0
H        5.61083456       0.52083913       2.07985367  F        0
H       13.50938118       0.51971906       2.07492992  F        0
H        5.61112307      13.75835362       2.07975607  F        0
H       13.50958039      13.75682243       2.07498241  F        0
H       13.51084140      13.75504172       5.44776650  F        0
H        5.62495998      13.75277707       5.44935724  F        0
H       13.50975252       0.52161770       5.44778410  F        0
H        5.62509051       0.52255101       5.44942550  F        0
H       17.28974254      11.12548174       7.01862795  F        0
H        1.83343022      11.12554006       7.01950242  F        0
H       17.28979000       3.14560285       7.02339196  F        0
H        1.81954193       3.15353441       6.98813474  F        0
H        1.83183800       3.14857954       0.53722786  F        0
H       17.29134854       3.14797220       0.53999843  F        0
H        1.83154049      11.12909684       0.54034962  F        0
H        6.35952436       2.97904956      -0.93427223  F        0
H       12.76076393       2.97683097      -0.93375646  F        0
H        6.36236324      11.29726414      -0.93275871  F        0
H       16.56020813      13.76127004      -0.00066979  F        0
H        4.51175007       7.13509558      -0.92932085  F        0
H       20.08739461      11.34211663       0.00099186  F        0
H        6.35949513       2.97597070       8.47938261  F        0
H       12.76321398       2.97604733       8.47995589  F        0
H        6.35946036      11.30224636       8.48133548  F        0
H       12.76333233      11.30075111       8.47967776  F        0
H       14.61405599       7.13800201       8.47661577  F        0
H        4.50898861       7.14016697       8.47499567  F        0
H       15.75636517       4.89339805      -2.09021006  F        0
H       13.51084140      13.75504172      -2.09873350  F        0
H       11.39521725      10.28762784      -3.24237523  F        0
H       15.92569105      10.11584057      -4.70878458  F        0
H       12.88191441       7.13773895      -3.23957932  F        0
Fe      11.52965443       8.54070364       1.61245225  T        0
Fe       9.40079144       6.30131298       2.61104996  T        1
O       10.25449122       7.26891180       1.32699002  T        2
