130
Lattice="20.102 0.0 0.0 0.0 19.731 0.0 0.0 0.0 13.253" Properties=species:S:1:pos:R:3:move_mask:L:1:tags:I:1 i=77 E=-3472.0240129048 regions="_JSON [\"Active\"]" n_terminators=34 energy=-861.2040697346924 pbc="F F F"
O       10.11071086       1.14530931       8.81633008  T        0
O        8.25193230       1.16267479      10.49769859  T        0
O       17.67603220       1.45579308       9.37838197  T        0
O        8.03716514       2.73620689       8.23557511  T        0
O        8.39793263       7.04415501       8.34022481  T        0
O        7.81567206       0.07957636       7.95752698  T        0
O        6.33331666       1.23768576      12.92645738  T        0
O       16.17493663       0.96359046       7.18564135  T        0
O        5.43273575       1.30704652      10.17570851  T        0
O       14.96577579       1.12052086       9.54633101  T        0
O       16.52730790       2.35841002       4.93333275  T        0
O       14.19814916       1.14939009       5.25976770  T        0
O       16.32937258      -0.39659140       4.90566193  T        0
O       11.75941348       2.07528210       4.69576829  T        0
O       12.45566661       1.20132421       7.21833979  T        0
O        2.76967688       1.55440079      10.48225151  T        0
O       12.33110092       1.11150176      10.24696542  T        0
O        4.09194307       2.73182224       8.43084449  T        0
O        4.22754844       7.15296552       8.67035126  T        0
O       14.90297869       7.60449902      11.38694861  T        0
O       14.01775010       2.70143261      11.54543943  T        0
O        3.64775823       7.42741537       6.05439560  T        0
O        3.41706340       3.01355019       5.87868814  T        0
O        4.40296095       5.07252662       7.20444110  T        0
O       14.50864342       5.15224716      12.43360071  T        0
O        6.19269135       7.01029371       6.74941369  T        0
O        6.02558967       3.09165040       6.52543158  T        0
O       16.39211992       3.16000465      12.49605707  T        0
O       16.30471167       6.81525453      13.53059271  T        0
O        7.93959639       4.97589813       6.75834720  T        0
O        8.67297389       7.38172118       5.72227772  T        0
O        8.56869359       2.54330523       5.71472487  T        0
Si       8.45250976       1.27482644       8.81953244  T        0
Al       6.56800128       0.63143034      11.30168527  T        0
Si      16.36862845       0.63328809       8.78889483  T        0
Si      15.79763855       1.02219531       5.58360342  T        0
Si      12.61351501       1.00487089       5.62880876  T        0
Al      11.75996682       0.46620850       8.59194175  T        0
Si       4.02639098       1.39659122       9.40460653  T        0
Si      13.91785589       1.25255566      10.79245641  T        0
Si       4.62943646       6.67868902       7.15196744  T        0
Si       4.49590145       3.45839569       7.03770681  T        0
Si      14.79807685       3.56746170      12.69714924  T        0
Si      14.83017063       6.73246630      12.77952446  T        0
Si       7.77848602       6.60787494       6.87561631  T        0
Si       7.61950137       3.37102120       6.76916420  T        0
O       13.31624315       0.99678199      15.46852497  T        0
O        5.35086432       2.39030970      15.21248673  T        0
O        3.92091104       0.47048742      14.07593590  T        0
O        6.26737028      -0.22614524      15.08224017  T        0
O       12.64046874       3.52171461      16.18665058  T        0
O       14.26476078       3.17363243      14.18677196  T        0
O       13.73376189       7.38427887      13.81957043  T        0
O       15.14455085       2.45297445      16.62941861  T        0
Si       5.48144712       1.00782588      14.28927475  T        0
Si      13.83736310       2.53505119      15.62660472  T        0
O       12.25564455      -1.41642498      15.89299852  T        0
O       14.20041720      -1.19588406      14.14981384  T        0
O       14.78189964      -0.84226768      16.73321386  T        0
Si      13.64675900      -0.60735774      15.56228834  T        0
O       12.01539348      -0.51039882       5.30396317  T        0
O        3.15121136      -1.04792895       6.11919778  T        0
O        6.62978304      -1.09602845      11.20300646  T        0
O       16.54618557      -0.97418633       8.99898068  T        0
O        3.71879332      -2.54308999       8.15420225  T        0
O       14.00501122      -2.59143128      11.89251334  T        0
O        5.69493210      -1.14715521       7.01339279  T        0
O       16.29801184      -1.56982751      12.46602252  T        0
O        3.77580333       0.08376955       8.45340072  T        0
O       14.20318252       0.08466018      11.88201345  T        0
O        7.91257606      -2.53933657       7.63942495  T        0
O        7.70362444      -0.95949306       5.41660139  T        0
O       11.72895672      -1.23322920       8.78224506  T        0
O        9.85191028      -3.05542264       9.41949318  T        0
O        7.34884783      -3.43251788      10.14094930  T        0
O       17.72994810      -3.37607752       9.44788330  T        0
O        8.39134866      -5.04126475       8.26086351  T        0
O        6.41102939      -3.43388546      12.58899135  T        0
O       16.58842388      -3.07834828       7.24581976  T        0
O        4.77309411      -2.92342268      10.55421143  T        0
O       14.98367986      -3.04923259       9.43142264  T        0
O       11.57108421      -3.57916328       7.47708530  T        0
O        2.20568612      -3.56455168      10.14087137  T        0
O       12.40116611      -3.50007390      10.00988788  T        0
O        4.09897506      -4.98855253       8.86966603  T        0
O       14.29573786      -5.06400812      11.11317851  T        0
Si       4.11835206      -1.14362304       7.44292205  T        0
Si      14.67580440      -1.30242480      12.59936547  T        0
Si       7.31656111      -1.16121087       7.00246002  T        0
Si       8.36828616      -3.51791510       8.88141468  T        0
Si       6.29277635      -2.66312676      11.13223659  T        0
Si      16.43425559      -2.60225323       8.80562459  T        0
Si      11.38801480      -2.80661762       8.92231579  T        0
Si       3.71495417      -3.50864959       9.46460927  T        0
Si      13.92584247      -3.55634300      10.57536368  T        0
H       18.28958667       1.43588107      10.15436837  F        0
H        8.32487050       7.90186745       8.80281456  F        0
H       16.07046275       3.06180759       4.42856956  F        0
H       15.98978240      -0.78453136       4.07110474  F        0
H       11.89104871       3.03992679       4.74838323  F        0
H        1.92726146       1.06764952      10.59110356  F        0
H        4.22937585       8.00675492       9.12987558  F        0
H       14.28051860       8.00675493      10.74957687  F        0
H        3.68470478       7.32851759       5.08310689  F        0
H        3.68470477       2.53683452       5.08310689  F        0
H       17.11292418       3.38174117      13.10695602  F        0
H       17.11292418       6.48361095      13.10695602  F        0
H        8.61892990       7.41665368       4.74740481  F        0
H        8.61892989       2.44869843       4.74740482  F        0
H        6.01932000       3.06180763      15.45091456  F        0
H        3.12887898       0.94105847      13.74983427  F        0
H        5.93863966      -0.78453132      15.80837942  F        0
H       12.10039016       3.38484891      16.98641506  F        0
H       13.73584752       7.32851760      14.79637726  F        0
H       15.83774431       3.12895724      16.63016863  F        0
H       11.86384156      -1.43617684      16.78088422  F        0
H       15.58095514      -1.34062803      16.50370227  F        0
H       11.77602643      -0.87915380       4.43990149  F        0
H        3.46536401      -0.71595242       5.26900440  F        0
H       16.97340650      -0.94135423      12.75613404  F        0
H        8.50665683      -0.71970043       4.91774358  F        0
H       18.05303809      -3.38514467      10.35989921  F        0
H        8.48702655      -5.84645393       8.80063176  F        0
H        5.86807409      -3.11655948      13.33116226  F        0
H       15.91920927      -3.11656509       6.54830012  F        0
H       12.09335995      -3.05691362       6.85557055  F        0
H        1.73086688      -2.74256168      10.35624453  F        0
H        4.05997682      -5.86251935       9.28699688  F        0
H       14.11111956      -5.86251936      10.59245558  F        0
Fe      10.31001383       1.17722135      10.79414046  T        1
