147
Lattice="24.397 0.0 0.0 0.0 24.397 0.0 0.0 0.0 24.397" Properties=species:S:1:pos:R:3:move_mask:L:1:tags:I:1 i=41 E=-6943.8331748197 regions="_JSON [\"Active\"]" n_terminators=24 energy=-1045.2838562719708 pbc="F F F"
O        9.41111734      14.60631830      -0.12119232  T        0
O       12.31769037       9.45893506       2.56669218  T        0
O       14.68066421      20.84734646       6.03541625  T        0
O       12.28493276      15.74605721       8.79192680  T        0
O        9.65928566      18.38891505       3.76366150  T        0
O       15.65838010       9.42777681       6.12964156  T        0
O       18.37878725      14.86488218       8.85186457  T        0
O       21.07371748      12.16757932       3.45164291  T        0
O       21.06237188      15.63140279      -0.06570340  T        0
O       18.33575566      21.04358238       2.64734422  T        0
O       14.76354948       9.57145365       0.01732052  T        0
O        9.59684930      12.14909039       2.61255656  T        0
O       21.07426030      14.82290147       6.09082663  T        0
O       15.65364413      12.16407710       8.87048993  T        0
O       18.34790201       9.43499496       3.44506436  T        0
O        9.59622351      15.77607865       6.10567901  T        0
O       14.78344996      18.22005471       8.80236164  T        0
O       12.11629113      20.91492547       3.75572285  T        0
O       15.58615425      20.99203986      -0.22086978  T        0
O       21.05927904      18.30353673       2.62999189  T        0
O       11.45949433      13.92869165       1.86323423  T        0
O       14.03631220      11.40106197       1.84960820  T        0
O       13.09472337      20.16714479       8.08916892  T        0
O       10.30486658      17.41954532       8.11462432  T        0
O       10.05992575      20.47804863       5.43559965  T        0
O       19.26399706      16.48067458       1.76182208  T        0
O       16.56857332      19.27691010       1.65308847  T        0
O       10.33552519      10.16691866       0.93798918  T        0
O       11.46064077      16.44353448       4.32364663  T        0
O       14.10438286      18.85900242       4.28251845  T        0
O       14.07204271      16.46609592       6.90278317  T        0
O       19.25403540      13.98702070       4.28052461  T        0
O       16.59045849      11.26580978       4.36570532  T        0
O       16.59711259      13.92205656       7.04565949  T        0
O       12.09405907      11.97354115       3.53666091  T        0
O       12.19017868      21.82442947       6.26927573  T        0
O       12.25721144      18.25451245       9.69809062  T        0
O        8.71503747      18.31683825       6.23469553  T        0
O       18.43725384      18.42305242       3.32680581  T        0
O       12.26770091       8.60847968       0.03223748  T        0
O        8.73691017      12.01668832       0.07986209  T        0
O       12.10428764      14.82034243       6.28688376  T        0
O       12.13176041      18.20622886       2.67077238  T        0
O       15.75892889      18.41723733       6.29561073  T        0
O       18.47780467      15.58095617       6.23663842  T        0
O       18.47874250      12.03854989       2.68601152  T        0
O       14.92744088      12.03925546       6.25912288  T        0
O       10.17571138      16.50507995       1.94135079  T        0
O       14.04851101      10.39862746       4.34528362  T        0
O       14.15090377      22.64791215       7.93472897  T        0
O       10.49966607      16.42880405      10.62437404  T        0
O        7.63267597      19.93084348       4.39282357  T        0
O       10.59986886      22.95279587       4.47868047  T        0
O       20.09260109      13.92394308       1.72350096  T        0
O       16.52131162      19.99978052       4.26971154  T        0
O       16.54751879      10.43003128       1.81116167  T        0
O       10.48612296      13.93432434       4.37315678  T        0
O        7.80141702      16.37785773       7.89184484  T        0
O       14.08412070      20.00805007      10.61619192  T        0
O       14.01060687      20.11009162       1.66916670  T        0
O       20.06066717      16.54509592       4.32889830  T        0
O        7.84727008      10.31845307       2.00130121  T        0
O       16.57344013      16.47322048       7.88500974  T        0
O       14.03793029      13.96071128       7.87810768  T        0
O       10.53469022       7.61865617       1.83443773  T        0
Al      10.66354563      15.23381758       0.87035555  T        0
Si      13.11276075      10.79010047       3.07995068  T        0
Si      13.52606065      21.38522651       7.08150402  T        0
Si      11.32502045      16.97203541       9.31390326  T        0
Si       9.03527998      19.30063234       4.96728914  T        0
Si      19.72521710      15.23266402       0.81394709  T        0
Si      17.46147673      19.67932472       2.96280709  T        0
Si      15.26852268      10.84717270       0.89992479  T        0
Si      10.90209543      12.99335234       3.09926987  T        0
Si       9.09915526      16.98980909       7.09752031  T        0
Si      13.54834050      19.17919258       9.30554701  T        0
Si      11.24998807      21.52173744       4.95893142  T        0
Si      15.25272112      19.70208198       0.75136203  T        0
Si      19.70269564      17.44565059       3.00932424  T        0
Si       9.11873657      11.15895307       1.39514752  T        0
Si      10.88948242      15.21790462       5.28845095  T        0
Al      13.04639654      19.68364712       3.02163066  T        0
Si      15.30443550      17.40548922       7.48623233  T        0
Si      19.72027857      15.22896951       5.23892837  T        0
Si      17.50297585      10.80142163       3.08748586  T        0
Si      15.31507277      13.01602241       7.50417623  T        0
Si      11.34765424       8.95468082       1.33929649  T        0
Si      15.31968744      10.79533134       5.28333320  T        0
Si      19.72743617      13.02778733       3.04336405  T        0
Si      17.51647249      15.20191639       7.49234670  T        0
Si      15.27583854      19.55207218       5.22746976  T        0
Si      10.77636838      17.41593733       3.10736064  T        0
Si      13.12477920      15.24548494       7.48409104  T        0
O       14.64351631      12.25796278      -2.56224728  T        0
O       15.69855492      18.25223339      -2.79730409  T        0
O       12.18147681      14.61869448      -2.53176043  T        0
O       18.31949605      15.65680291      -2.76295067  T        0
O       14.07728601      14.07610812      -0.64485768  T        0
O       16.52220097      16.49141103      -0.91834929  T        0
O       13.02066652      10.21951961      -1.92414993  T        0
O       10.11048964      12.91030311      -2.03468808  T        0
O       12.17475412      15.62299724      -0.01648188  T        0
O       15.68728558      12.08179201      -0.08401558  T        0
O       18.46969085      14.86752958      -0.16824484  T        0
O       14.88585815      18.40220176      -0.18834376  T        0
O       12.15878927      12.15039640      -3.51899575  T        0
O       16.53430760      13.96954729      -1.76820195  T        0
O       14.06047361      10.45578486      -4.41991323  T        0
O        7.46837890      13.42590624      -1.61452602  T        0
O       13.99719188      16.48802610      -1.83367060  T        0
O       10.47156058      14.05446515      -4.44874028  T        0
O       14.10717498       7.74197176      -1.75099733  T        0
Si      15.26457144      13.07254549      -1.29638318  T        0
Si      15.28600505      17.43839643      -1.42607412  T        0
Si      13.06176875      15.25711052      -1.32728474  T        0
Si      17.48384519      15.26176351      -1.39959266  T        0
Si      13.52645846       9.02901493      -0.91568473  T        0
Si      11.20765219      13.42140770      -3.12191538  T        0
Si       8.94997334      13.28657490      -0.92096189  T        0
Si      13.46025643      11.25132124      -3.11493699  T        0
H       16.48559112       9.33840607       6.62628668  F        0
H       18.82464116      14.01032609       8.95915608  F        0
H       21.15750258      11.67126816       4.28721909  F        0
H       21.15749781      16.48550533      -0.52720743  F        0
H       18.82463422      21.15752504       1.81198193  F        0
H       21.15748967      14.01033142       6.62630180  F        0
H       16.48560162      11.67124930       8.95913012  F        0
H       18.82463962       9.33839646       4.28720704  F        0
H       16.48550522      21.15749796      -0.52720744  F        0
H       21.15752488      18.82463433       1.81198193  F        0
H       13.68673605      23.15239550       8.63276462  F        0
H        9.66477675      16.80915558      10.95402362  F        0
H        7.34351903      20.83116256       4.61081863  F        0
H        9.66481601      23.15243056       4.61081458  F        0
H        7.34350493      16.80917637       8.63275504  F        0
H       13.68672539      20.83112809      10.95404502  F        0
H        7.34352333       9.66479174       1.48837704  F        0
H        9.66479163       7.34352337       1.48837704  F        0
H       16.48557283      18.82464187      -2.86023677  F        0
H       18.82464171      16.48557294      -2.86023676  F        0
H       13.68673308       9.66480596      -4.85513656  F        0
H        7.34352146      13.68671965      -2.53387758  F        0
H        9.66480591      13.68673318      -4.85513656  F        0
H       13.68671953       7.34352150      -2.53387758  F        0
Fe      13.44779097      14.53165571       1.47511731  T        0
Fe      13.59292896      16.92172396       3.75098231  T        1
O       14.19803528      15.40731812       2.89627867  T        2
