142
Lattice="19.123 0.0 0.0 0.0 14.277 0.0 0.0 0.0 7.5465" Properties=species:S:1:pos:R:3:move_mask:L:1:tags:I:1 i=128 E=-2603.9155142701 regions="_JSON [\"Active\"]" n_terminators=34 energy=-949.538341765359 pbc="F F F"
O        6.26957686       1.22581022       1.96632068  T        0
O       15.82353419       8.51799978       5.91896545  T        0
O       12.87355508       1.24542249       1.89479694  T        0
O        6.06300399      13.13176046       1.48309603  T        0
O       15.79127470       5.84028624       5.79284388  T        0
O       13.28432221      13.17684140       1.32306128  T        0
O       13.32521080      13.15548200       6.19309274  T        0
O        3.38775926       5.78541321       1.90219257  T        0
O       15.70104652       5.76222652       1.77309934  T        0
O       13.33469516       1.09699366       6.21322057  T        0
O        3.37720966       8.48792304       1.98768894  T        0
O       15.60790356       8.43459375       1.69503306  T        0
O        7.19710291       3.63801155       2.42833536  T        0
O       17.17889790      10.84478227       6.08617161  T        0
O       11.95523440       3.78561951       2.13429195  T        0
O        7.12075022      10.85932211       2.56396667  T        0
O       17.23845689       3.59291038       6.15696648  T        0
O       12.03001081      11.05133237       2.50092996  T        0
O       11.86486240      10.98660896       5.36406506  T        0
O        2.03830350       3.51753770       1.34404757  T        0
O        7.47057752      10.66945439       5.26918661  T        0
O       17.23499777       3.57200991       1.42042839  T        0
O       12.04958749       3.17264055       4.98874787  T        0
O        1.92809653      10.72605954       1.42903953  T        0
O        7.50279450       3.34214223       5.15914800  T        0
O       17.23848498      10.51548888       1.29913969  T        0
O        6.39930797       3.00027206      -0.06223294  T        0
O       16.30640922       9.99526014       3.73128330  T        0
O       12.88810650       3.02032310      -0.19946515  T        0
O        2.86913505      10.43235453       3.83666349  T        0
O        6.60987731      11.01067521      -0.02859439  T        0
O       16.18076760       4.10998843       3.80552564  T        0
O       12.69802498      10.92598190      -0.03988654  T        0
O        2.78513977       3.96185836       3.82866276  T        0
O        4.61777240       3.39086331       1.89909311  T        0
O       14.51584774      10.82719128       5.45759437  T        0
O       14.58998662       3.32182042       1.81180783  T        0
O        4.58986917      10.86887654       1.78230791  T        0
O       14.55438831       3.46358047       5.84591535  T        0
O       14.61302468      10.91271976       1.84403779  T        0
O        1.80065890       1.13714627       0.02169621  T        0
O       11.63127271       8.48382410       3.76832756  T        0
O        7.57290817       8.41850716       3.66142469  T        0
O       11.66552219       5.85857618       3.81493058  T        0
O        7.32314113       5.78426797       3.99451942  T        0
O       -0.05388563       3.04946683      -0.34518909  T        0
O        9.50538154      10.02737961       3.63012718  T        0
O        9.48401792       4.14954557       3.70613306  T        0
O       13.66325260       7.25600725       5.04556441  T        0
O        5.56257460       7.59647482       5.11232769  T        0
O        5.61383197       7.11788412       2.42500416  T        0
O       13.40245778       6.99980314       2.35082695  T        0
O       14.15993794       6.92330634      -0.09124961  T        0
O        4.59600377       7.21871155      -0.04155296  T        0
Si       6.10559802       2.80981457       1.54349675  T        0
Si      15.94420552      10.05545893       5.33294060  T        0
Si      13.09590648       2.80619368       1.41305343  T        0
Si       6.06490146      11.48216642       1.45426480  T        0
Si      15.91499245       4.24245817       5.42361803  T        0
Si      13.13677007      11.52602670       1.43315894  T        0
Si      13.18878294      11.50058459       6.15212957  T        0
Si       3.22990698       4.18073742       2.25009101  T        0
Si      15.92328529       4.18847868       2.20143293  T        0
Si      13.10268441       2.73637140       6.13091851  T        0
Si       3.21371684      10.10588814       2.25279541  T        0
Si      15.92087685      10.00004355       2.14150356  T        0
Si       1.53750281       2.77626569      -0.04761881  T        0
Al      11.32788548      10.27828075       3.87655741  T        0
Si       7.86276653      10.08186323       3.79041881  T        0
Al      11.21230642       4.11891389       3.83180205  T        0
Si       7.87924247       4.21490207       3.80822179  T        0
Si      14.90854087       7.17872360       6.11584569  T        0
Si       4.22363593       7.15085274       1.55010121  T        0
Si      14.78550766       7.06878396       1.43409690  T        0
Si      12.61945983       7.17917802       3.82876096  T        0
Si       6.47543936       7.15753251       3.80429772  T        0
O       12.49478259       3.22989870       7.58067990  T        0
O       13.27119534      10.98330246       7.71705760  T        0
O       14.20132406       7.09915279       7.59511927  T        0
O        3.18786321       8.41576857      -2.02547230  T        0
O        3.50482231       5.79300930      -2.01650645  T        0
O       12.88011659       1.24855669      -2.25893195  T        0
O        6.31588238       1.20907102      -2.10699662  T        0
O        7.52338125       3.45708529      -5.24475196  T        0
O       11.57130972       3.37349363      -5.26744170  T        0
O        2.32106713       3.47702496      -1.30801520  T        0
O       11.97636560       3.72448212      -2.59519748  T        0
O        7.43460021       3.55110296      -2.50254110  T        0
O        2.78136296       3.94778140      -3.86182961  T        0
O       14.66626427       3.17868570      -2.25504796  T        0
O        4.81763032       3.46739640      -2.16692573  T        0
O        7.76563337       8.39614533      -3.82794839  T        0
O       11.88131614       5.82760024      -4.29921272  T        0
O        7.31326900       5.81047363      -3.92694710  T        0
O        9.60677615       4.35943527      -3.82098514  T        0
O        5.62880005       7.34902200      -2.52319104  T        0
O        5.66618145       7.55318161      -5.24550752  T        0
Si       3.36473976       4.18862068      -2.33549680  T        0
Si      13.10488747       2.81983297      -1.82249155  T        0
Si       6.22826805       2.80251831      -1.68713897  T        0
Si      11.25157179       4.33345306      -3.96581260  T        0
Si       7.95585659       4.29290392      -3.88123821  T        0
Si       4.24874220       7.20345327      -1.65175941  T        0
Si       6.56403010       7.26709383      -3.87973191  T        0
H        5.61083456       0.52083913       2.07985367  F        0
H       13.50938118       0.51971906       2.07492992  F        0
H        5.61112307      13.75835362       2.07975607  F        0
H       13.50958039      13.75682243       2.07498241  F        0
H       13.51084140      13.75504172       5.44776650  F        0
H       13.50975252       0.52161770       5.44778410  F        0
H       17.28974254      11.12548174       7.01862795  F        0
H       17.28979000       3.14560285       7.02339196  F        0
H        6.67998430      11.11604137       5.63469228  F        0
H       17.29134854       3.14797220       0.53999843  F        0
H        1.83154049      11.12909684       0.54034962  F        0
H        6.67493943       3.16061899       5.63310767  F        0
H       17.29120144      11.12876736       0.54010345  F        0
H        3.19647477      10.11404518       4.70477207  F        0
H        6.36236324      11.29726414      -0.93275871  F        0
H       12.76174962      11.29928001      -0.93393629  F        0
H        3.19279804       4.15795734       4.69750931  F        0
H        2.56244240       0.51556882       0.00084209  F        0
H       -0.96435880       2.93479999       0.00082830  F        0
H        4.87489857       7.13453431       5.62990583  F        0
H       14.60982961       7.13673871      -0.92783774  F        0
H       12.76321398       2.97604733       8.47995589  F        0
H       12.76333233      11.30075111       8.47967776  F        0
H       14.61405599       7.13800201       8.47661577  F        0
H        3.36611374       9.37433505      -2.09115109  F        0
H       13.50975252       0.52161770      -2.09871590  F        0
H        5.62509051       0.52255101      -2.09707450  F        0
H        6.67730558       3.15591219      -5.64675051  F        0
H       12.44565577       3.15588527      -5.64616185  F        0
H        3.20026696       4.16316078      -4.71757657  F        0
H       15.19955093       3.97637223      -2.09238403  F        0
H        7.80714812       9.37398274      -3.78410482  F        0
H       12.12599848       6.62134464      -3.78390305  F        0
H        4.87243006       7.14046961      -5.64294599  F        0
Fe       9.73143675       8.05691197       2.81687806  T        0
Fe      11.56254472       5.72982277       1.56018647  T        1
O       10.68752647       7.40185958       0.98549953  T        2
O        9.58983495       6.53193636       1.53574766  T        3
