138
Lattice="20.102 0.0 0.0 0.0 19.731 0.0 0.0 0.0 13.253" Properties=species:S:1:pos:R:3:move_mask:L:1:tags:I:1 i=77 E=-3472.0240129048 regions="_JSON [\"Active\"]" n_terminators=34 energy=-923.2487585351823 pbc="F F F"
O       10.11239300       1.15491788       9.32021764  T        0
O        7.57757762       1.34426381      10.01349504  T        0
O        8.47427926       2.77175079       7.87667890  T        0
O        8.26204569       0.13920903       7.70964547  T        0
O        6.35799063       1.08948086      12.73190580  T        0
O        4.64988808       1.21390236      10.50308653  T        0
O       15.83862327       1.34411519       9.69831070  T        0
O       14.27171162       0.48644787       5.65189149  T        0
O       12.65207785       2.53797333       5.09361958  T        0
O       11.95053473       0.73598555       7.03075366  T        0
O        2.11173912       1.49060936       9.73883801  T        0
O       13.08780131       1.18607862       9.66781579  T        0
O        4.02059883       2.87716795       8.52998334  T        0
O       14.46620156       2.53724867      11.54192375  T        0
O        3.69053291       2.50667395       6.04558857  T        0
O        3.90731361       5.06489294       6.91416928  T        0
O       14.02265429       4.98387887      12.42811445  T        0
O        6.07490867       3.51860557       6.96920397  T        0
O       16.41365264       3.99142552      12.82643945  T        0
O        8.25730231       5.02935422       6.43952333  T        0
O        7.80798067       2.66176142       5.23628730  T        0
Si       8.56698139       1.37986556       8.73653488  T        0
Al       6.23601943       0.75900531      10.95902059  T        0
Si      12.68130181       0.96286872       5.60341696  T        0
Al      11.75279209       0.58772741       8.73357129  T        0
Si       3.68417234       1.43690860       9.23423967  T        0
Si      14.42601699       1.22908317      10.56300818  T        0
Si       4.44563018       3.51527653       7.09609531  T        0
Si      14.81471487       3.57839537      12.73514869  T        0
Si       7.66443631       3.50216613       6.64754517  T        0
O       13.64659291       0.69467520      15.46491970  T        0
O        5.59711617       2.45802471      14.95251666  T        0
O        3.96047564       0.49191211      13.96518040  T        0
O       14.22791060       0.90741777      19.79170589  T        0
O        6.26059652      -0.20224639      14.88614990  T        0
O       12.20168595       2.43170417      18.78056499  T        0
O       11.70520855       0.49603486      20.64936720  T        0
O        8.45275475       1.01344638      17.44537303  T        0
O       10.24849871       3.01219493      16.99069510  T        0
O       12.77461637       3.11841259      16.26715512  T        0
O       11.87692708       4.96102757      18.04466581  T        0
O       14.32515375       2.91699327      14.14622920  T        0
O        5.16315304       3.09140278      17.52598130  T        0
O       15.34520111       2.29638065      16.56514736  T        0
O        8.73676301       3.22046852      19.03977267  T        0
O        7.61586839       3.33490590      16.55881397  T        0
O        5.70177616       4.98363120      15.59737692  T        0
Si       5.48888117       1.07886324      14.11003681  T        0
Si      12.62995618       0.95079094      19.37105731  T        0
Si      11.76103174       3.39848013      17.52622571  T        0
Si      13.99668279       2.26996882      15.59691561  T        0
Si       8.75319441       2.62118853      17.51161144  T        0
Si       6.03446136       3.47908213      16.17329848  T        0
O        9.97410855      -1.17728456      17.18421849  T        0
O       12.20073732      -1.51124312      15.96549924  T        0
O       11.69592828      -2.86268542      18.30034222  T        0
O       12.27060127      -0.18000306      18.24564994  T        0
O       13.78270766      -1.34224195      13.79721666  T        0
O        4.66087973      -0.59522359      16.97255208  T        0
O       14.69809412      -1.68293367      16.34133935  T        0
O        8.65035917      -0.91923579      19.35605226  T        0
O        7.28130266      -1.33269557      17.04689370  T        0
O        5.58189215      -2.67961570      15.43273615  T        0
O        6.00821908      -5.04663612      14.33126968  T        0
O        3.75286970      -3.86511104      13.76132047  T        0
Si      11.56730546      -1.44304780      17.48032086  T        0
Si      13.60289661      -0.93720371      15.36892706  T        0
Si       8.58207365      -0.58851835      17.75453154  T        0
Si       5.92843456      -1.24690833      16.14812556  T        0
Si       5.33374376      -3.57419058      14.07517328  T        0
O       11.93081502       0.08132883       4.41311004  T        0
O        3.46759104      -1.36301386       5.99104270  T        0
O        6.40718778      -1.01442563      11.04999021  T        0
O        4.08086345      -2.44424228       8.25899976  T        0
O       14.24357576      -2.75401220      11.63075021  T        0
O        5.92719825      -0.93698978       6.99829424  T        0
O       16.28882457      -1.61752479      12.88118823  T        0
O        3.86086997       0.21661224       8.15676188  T        0
O       14.50357567      -0.09689902      11.53172633  T        0
O        7.82065788      -2.48077387       7.93506015  T        0
O        8.14762708      -1.39971755       5.52001047  T        0
O       11.38805943      -1.07669559       9.40255003  T        0
O        9.82327029      -3.16631429       9.56224116  T        0
O        7.33571604      -3.42443402      10.42435302  T        0
O        8.17700656      -5.01498215       8.40817875  T        0
O        6.18536636      -2.78189439      12.86330610  T        0
O        4.68554995      -3.13179669      10.73488611  T        0
O       14.80778605      -2.75977008       8.97416419  T        0
O       11.29366719      -2.90448717       7.38252202  T        0
O        2.17953118      -3.50428101       9.94881055  T        0
O       12.45037362      -3.51981255       9.77643512  T        0
O        4.09501326      -4.99813841       8.83895621  T        0
O       14.59390599      -5.07083083      10.30051160  T        0
Si       4.34178297      -1.10743632       7.35345609  T        0
Si      14.70411650      -1.41491685      12.45218214  T        0
Si       7.54044278      -1.15075711       7.02618051  T        0
Si       8.29224026      -3.52580075       9.07959099  T        0
Si       6.14884755      -2.60268993      11.18563190  T        0
Si      11.28720213      -2.67343788       9.00668533  T        0
Si       3.74536812      -3.51171342       9.43154255  T        0
Si      14.03003132      -3.52936034      10.21204668  T        0
H       16.04398914       0.93401564       8.84225549  F        0
H       15.03932989       0.97965726       5.99268335  F        0
H       11.89104871       3.03992679       4.74838323  F        0
H        1.92726146       1.06764952      10.59110356  F        0
H        3.68470477       2.53683452       5.08310689  F        0
H        4.37526294       5.84706860       7.26036481  F        0
H       14.42640568       5.84706861      12.61908764  F        0
H       17.11292418       3.38174117      13.10695602  F        0
H        7.92514400       5.84771651       6.85279547  F        0
H        8.61892989       2.44869843       4.74740482  F        0
H        3.12887898       0.94105847      13.74983427  F        0
H       15.03932989       0.97965726      19.24568335  F        0
H       11.59562866       0.71940466      21.58822473  F        0
H       11.61525895       5.84615817      17.70533654  F        0
H        4.34567169       2.56164175      17.50136906  F        0
H       15.83774431       3.12895724      16.63016863  F        0
H        8.00892553       3.05661785      19.65039776  F        0
H        5.99116593       5.86222359      15.91351272  F        0
H       12.25872462      -3.14188650      19.04928408  F        0
H        4.05829635      -0.93431141      17.66371282  F        0
H       15.58095514      -1.34062803      16.50370227  F        0
H        7.89439933      -0.88911559      19.94994329  F        0
H        5.67587981      -5.84736437      13.88688066  F        0
H        2.98936131      -3.38203693      13.39901228  F        0
H       11.77602643      -0.87915380       4.43990149  F        0
H        3.46536401      -0.71595242       5.26900440  F        0
H       16.97340650      -0.94135423      12.75613404  F        0
H        8.50665683      -0.71970043       4.91774358  F        0
H        8.48702655      -5.84645393       8.80063176  F        0
H       15.75661380      -2.56193752       9.00459925  F        0
H       12.09335995      -3.05691362       6.85557055  F        0
H        1.73086688      -2.74256168      10.35624453  F        0
H        4.05997682      -5.86251935       9.28699688  F        0
H       14.11111956      -5.86251936      10.59245558  F        0
Fe       7.49337704      -0.78799159      13.03471219  T        0
Fe       9.96777053      -0.36174041      10.78338123  T        1
O        9.20905077      -0.74872648      12.38346715  T        2
