142
Lattice="20.102 0.0 0.0 0.0 19.731 0.0 0.0 0.0 13.253" Properties=species:S:1:pos:R:3:move_mask:L:1:tags:I:1 i=77 E=-3472.0240129048 regions="_JSON [\"Active\"]" n_terminators=34 energy=-951.6088697467657 pbc="F F F"
O       11.83170022      16.86936522       4.82002070  T        0
O       11.72973357      12.73730693       4.78288880  T        0
O        3.20676935      18.61061083       6.11526240  T        0
O        6.01614980      18.86709779      10.99082679  T        0
O        7.08266446      10.64490695      11.14469965  T        0
O       16.90928851      10.68889410       9.20305264  T        0
O       16.44455128      18.91798887       8.84844570  T        0
O        3.62188253      12.04771786       8.09174300  T        0
O        3.86736980      17.04908474       8.11670991  T        0
O       14.53196523      17.35550660      12.05351826  T        0
O       14.08759724      11.98408056      11.82023785  T        0
O        5.72641896      18.71503320       7.05873552  T        0
O       16.19184138      19.31057602      12.99948864  T        0
O       16.10758239      10.83313523      13.19912516  T        0
O        3.76122061      19.64392828       8.56649309  T        0
O       14.06520935      19.91020964      11.46122872  T        0
O       14.74560831       9.34817392      11.43402267  T        0
O        7.45228443      12.14315768       8.11048578  T        0
O        7.95070225      17.31956458       7.48219318  T        0
O        7.64183909      19.02443928       5.36053196  T        0
O       11.94578659      10.59702064       9.45289216  T        0
O       11.52340835      18.92373800       9.28633069  T        0
O       16.14777939      17.02339835       4.51779141  T        0
O       16.28055630      12.48947741       4.56288324  T        0
O        9.99926079      16.72629772       9.52622957  T        0
O        9.92403281      12.45256298       9.22771854  T        0
O        7.49992981      16.70685634      10.38687577  T        0
O        7.71604725      13.07895872      10.58018227  T        0
O       17.68198559      13.22988589       9.46172373  T        0
O       18.02542033      16.91656187       9.56617131  T        0
O        8.44444870      14.60992504       8.56434032  T        0
O        6.27061513      16.88583829      12.72784652  T        0
O        6.10916694      12.63306895      12.69457028  T        0
O       16.47050675      12.54361210       7.23376150  T        0
O       16.66524976      16.90921590       7.16937759  T        0
O        4.82300289      16.53368267      10.53167171  T        0
O        5.19241622      12.40957881      10.21930473  T        0
O       15.04470679      12.66721937       9.43741558  T        0
O       15.36693771      16.51355683       9.42214966  T        0
O       15.84217131      14.76213220       5.84047027  T        0
O       14.09413063      12.73836010       6.09073583  T        0
O       14.12597258      16.78657574       6.28096442  T        0
O       12.35027421      14.76904348       6.29730730  T        0
O       11.86499496      12.39699445       7.43313867  T        0
O       11.77598366      17.01767647       7.50897952  T        0
O        2.19564771      16.16906779      10.11583113  T        0
O        2.66861744      12.67687237      10.57704407  T        0
O       12.41945564      13.04725948       9.98431597  T        0
O       12.53273082      16.53577172      10.06395903  T        0
O        3.93252823      14.52399039       9.06737405  T        0
O       14.00861067      14.59912872      11.13325408  T        0
Si       4.16206862      18.52228327       7.44696520  T        0
Si      14.64033634      18.87165709      12.59406831  T        0
Si      14.62777422      10.58478092      12.51658133  T        0
Si       7.35468243      18.72456618       6.95594685  T        0
Al       8.40038118      16.32170155       8.79230345  T        0
Si       8.40049855      13.08771020       9.08107374  T        0
Si       6.12528772      17.26461010      11.14028209  T        0
Si       6.48364245      12.17584587      11.17774569  T        0
Si      16.52633327      12.24767846       8.83181930  T        0
Si      16.61803532      17.29210836       8.77447933  T        0
Si      15.67123447      13.15046662       5.93586350  T        0
Si      15.69478275      16.38360500       5.96611110  T        0
Si      12.52672679      13.16805056       6.14932941  T        0
Si      12.54380265      16.38221381       6.21929823  T        0
Si      11.48082854      12.10069157       8.97704940  T        0
Si      11.47070646      17.32167286       9.07801726  T        0
Si       3.69494597      16.09583897       9.42867959  T        0
Si       3.85725723      12.92836933       9.46278210  T        0
Si      13.99832620      13.05064121      10.60668930  T        0
Al      14.22981100      16.34699388      10.68431950  T        0
O       13.95987883      20.75225411      16.05871577  T        0
O        9.95489173      21.08309385       9.21713067  T        0
O        7.59759336      20.90374212      10.38430504  T        0
O       17.96931218      21.14176392       9.23173580  T        0
O        7.81070634      22.58220607       8.38499679  T        0
O        7.94715301      19.94051089       7.88231898  T        0
O        6.35593579      20.95716445      12.71688114  T        0
O       16.55241552      20.99659005       7.07273648  T        0
O        4.95112922      21.19751166      10.38002451  T        0
O       15.27424035      21.19495769       9.45458121  T        0
O       11.46957155      20.68129398       7.18292201  T        0
O        2.29681540      21.41767475       9.94725296  T        0
O       12.62952830      21.26070197       9.62284697  T        0
O        3.79252999      22.31748523       8.11874768  T        0
O       14.00756723      22.62030463      11.38684594  T        0
Si       8.33851042      21.11780918       8.93765756  T        0
Si       6.21268180      20.48657714      11.14644310  T        0
Si      16.54695940      20.53420799       8.65895336  T        0
Si      11.42831060      20.49567050       8.82561023  T        0
Si       3.75796597      21.13471947       9.24872094  T        0
Si      14.02063159      21.22821249      10.50258210  T        0
O       12.09034769      18.72570717      15.93831973  T        0
O       13.74616729      19.10247956      13.94596347  T        0
O       13.58417273      10.17819829      13.72309927  T        0
O       14.63430682      18.20532480      16.40039087  T        0
O        5.88958596      12.61455233      15.37797765  T        0
O        5.85719105      16.97943473      15.37634195  T        0
O        5.38063852      14.78572824      14.04125449  T        0
O        3.73123730      16.91480777      13.68624284  T        0
O        3.65160354      12.74182723      13.90485694  T        0
Si      13.62195376      19.20628500      15.56885467  T        0
Si       5.27595664      16.39179858      13.96255423  T        0
Si       5.24246091      13.16568033      13.97774676  T        0
H       11.77741499      17.76721957       4.45015374  F        0
H       11.77741500      11.82883679       4.45015372  F        0
H        3.46536401      19.01504758       5.26900440  F        0
H        6.59189033       9.81912404      11.03827922  F        0
H       16.64303307       9.81912404       8.84117322  F        0
H        4.35449611      11.55048736       7.68308178  F        0
H       16.97340650      18.78964577      12.75613404  F        0
H       16.97340651      10.80641058      12.75613404  F        0
H       14.16364097       9.08086469      10.69751272  F        0
H        7.69777211      11.47779022       7.44841170  F        0
H        8.50665683      19.01129957       4.91774358  F        0
H       11.52310774       9.76092419       9.21110646  F        0
H       15.87290964      17.87210703       4.12309272  F        0
H       15.87290964      11.72394929       4.12309273  F        0
H       18.05303808      13.25020103      10.35989921  F        0
H       18.05303809      16.34585533      10.35989921  F        0
H        1.73086688      16.98843832      10.35624453  F        0
H        1.73086689      12.60761804      10.35624453  F        0
H       13.65226955      21.53630200      15.57301841  F        0
H       18.28958667      21.16688107      10.15436837  F        0
H        7.84356087      22.87259074       7.45668424  F        0
H        6.01931354      20.68412461      13.59787507  F        0
H       16.07044730      20.68412712       6.28158542  F        0
H       12.20788616      20.61981982       6.55602502  F        0
H        1.92726146      20.79864952      10.59110356  F        0
H        4.51576461      22.82060840       7.71911054  F        0
H       14.56690736      22.82060840      12.16034191  F        0
H       11.86384156      18.29482316      16.78088422  F        0
H       13.51650676      10.58100877      14.61047976  F        0
H       15.58095514      18.39037197      16.50370227  F        0
H        5.82176689      11.72394931      15.75639142  F        0
H        5.82176689      17.87210706      15.75639142  F        0
H        2.98936131      16.34896307      13.39901228  F        0
H        2.98936131      13.24709329      13.39901228  F        0
Fe      11.80032326      14.84999493      11.06897941  T        0
Fe       9.08749210      16.19893771      11.47585700  T        1
O       10.07852568      14.48696733      12.03451562  T        2
O       10.67866607      15.77092572      12.58471839  T        3
