136
Lattice="24.397 0.0 0.0 0.0 24.397 0.0 0.0 0.0 24.397" Properties=species:S:1:pos:R:3:move_mask:L:1:tags:I:1 i=41 E=-6943.8331748197 regions="_JSON [\"Active\"]" n_terminators=32 energy=-912.7471809786718 pbc="F F F"
O       21.64895777       2.56807589       0.09921309  T        0
O       11.90601323       9.64781077       2.70990959  T        0
O       21.79999641       6.21426247       3.47404990  T        0
O       15.66704488       9.73202723       6.23600238  T        0
O       20.85730295      12.38530509       3.66241682  T        0
O       15.55041440       6.28423323       9.72560781  T        0
O       14.84619268       9.80642584      -0.32604179  T        0
O       21.89469989      -0.14583448       2.60668438  T        0
O       18.25777515       9.71127684       3.46525071  T        0
O       21.95857214       3.42413871       6.36964819  T        0
O       18.44021070       3.31065835       9.69069312  T        0
O       23.74452154       1.64375304       1.95169209  T        0
O       13.79755237      11.24094898       1.70759305  T        0
O       22.66550589       5.50192867       7.95348782  T        0
O       22.74062135       8.12018943       5.46536873  T        0
O       17.66053634      10.50765623       7.89846385  T        0
O       20.18712759      10.39787206       5.25643706  T        0
O       23.44661082       4.26594426       4.33756707  T        0
O       18.86881956      14.15282110       4.25617464  T        0
O       16.41818956      11.44541623       4.31946776  T        0
O       17.64581259       7.86745654      10.54830868  T        0
O       19.98622380       5.37141918      10.66132247  T        0
O       12.15051503      12.22394294       3.63021768  T        0
O       20.87406197       5.90195493       6.13129665  T        0
O       18.17211185       8.81621127       5.99970723  T        0
O       21.96416628      12.24933454       6.15102937  T        0
O       20.91597430       0.00117900       0.09052288  T        0
O       24.50653095       2.49087099       6.08810599  T        0
O       24.34880356       6.15588920       2.68468253  T        0
O       18.34763334      12.22725972       2.62077070  T        0
O       14.59907958      12.22608655       6.17857353  T        0
O       18.11311786       5.88802698       8.91843718  T        0
O       22.58273761       4.33423133       1.79536399  T        0
O       13.93163331      10.48128436       4.30356611  T        0
O       20.00639390       7.92345453       4.27957877  T        0
O       16.63764488       7.97774900       8.03143900  T        0
O       22.72201963      10.54040662       4.34133010  T        0
O       20.19889249      14.06410615       1.82106478  T        0
O       16.39164637      10.57062523       1.77573553  T        0
O       22.66470727       1.69894623       4.40821209  T        0
O       20.22270792       4.32667056       8.16595939  T        0
Al      23.27559138       2.92296674       0.91009417  T        0
Si      12.93453420      10.89757801       3.06371851  T        0
Al      21.45485577       7.07531205       5.03015751  T        0
Si      17.00354523       9.24444396       7.06102881  T        0
Si      21.42883557      11.40668589       4.84873812  T        0
Si      15.13532123      10.98538008       0.79835118  T        0
Si      23.17231976       0.73991130       3.16549116  T        0
Si      19.13939965       9.25245980       4.76798616  T        0
Si      21.41430632       4.77996909       7.14241393  T        0
Si      23.67515455       9.28762444       4.84744257  T        0
Si      23.13784107       2.97436189       5.31987425  T        0
Si      17.33633991      11.01202513       3.03444956  T        0
Si      19.19428265       4.73893770       9.35868519  T        0
Si      15.16078328      10.97484727       5.27374904  T        0
Si      19.56801844      13.22109532       3.08317289  T        0
Si      23.06900292       5.23498123       3.08635480  T        0
Si      16.98444569       6.99981493       9.31067484  T        0
O       24.52295889       8.70000983       3.54926859  T        0
O       28.01268882       8.84406009       0.17196648  T        0
O       28.87851663       6.76371985       1.74492470  T        0
O       26.20785986       6.72879055       4.39461169  T        0
O       24.73322398       9.90219814       5.95401505  T        0
O       26.34645186       7.73119379       1.86077783  T        0
Si      27.62228724       7.40222249       0.88436196  T        0
Si      25.36887948       7.36326212       3.11963864  T        0
O       28.01241010       5.92886878      -2.80388408  T        0
O       24.65494895       2.39602116      -2.71895678  T        0
O       26.22647076       1.72185311      -0.62543659  T        0
O       28.92597310       4.39018983      -0.71054793  T        0
O       27.22221705       6.28072826      -0.23338077  T        0
O       24.33348476      -0.16908012      -3.54871850  T        0
O       26.44214294       4.16738317      -1.79384364  T        0
Si      27.64495171       5.18815268      -1.37574409  T        0
Si      25.41642671       2.96492900      -1.36319184  T        0
O       18.13103033       2.38836956      -3.59547404  T        0
O       20.82071292       2.41564131      -6.23319286  T        0
O       20.09041146       0.71773438      -4.32028159  T        0
O       22.62739174       0.92965606      -1.76000112  T        0
O       18.87273882       1.85086260      -8.05490890  T        0
O       16.30880583       1.86833326      -5.54324345  T        0
O       24.35787948       3.49121218      -0.28217625  T        0
O       15.63127617      12.38560406       0.09667958  T        0
O       18.28329776      -0.09003586      -2.46682499  T        0
O       21.94990044      -0.06259123      -6.13732841  T        0
O       18.33065776       3.45253963      -6.06985963  T        0
O       20.03599753       1.68714769      -1.81894105  T        0
O       22.59565208       1.67014472      -4.31562340  T        0
O       20.15060594       4.30283463      -7.91194690  T        0
O       16.49272876       4.30937348      -4.25407387  T        0
Si      19.11732646       1.18312371      -3.08642420  T        0
Si      21.35007925       1.19469830      -5.26953695  T        0
Si      23.57728654       1.21271662      -3.08066358  T        0
Si      19.54422122       3.01174370      -7.08659272  T        0
Si      21.30004015       1.25675884      -0.87394070  T        0
Si      17.29782152       3.01264910      -4.87382787  T        0
O       22.55343572      -1.92126958       0.61228194  T        0
O       24.30602391      -0.27321964       3.80440463  T        0
O       20.10078353      -1.85850410       1.91184522  T        0
Si      21.37166285      -1.00083208       1.31547894  T        0
H       11.67127885       9.33842242       1.81195952  F        0
H       15.43757911       5.57209275      10.38640946  F        0
H       14.01041460       9.33842077      -0.52721165  F        0
H       17.77043311       3.23924387      10.38640412  F        0
H       23.12591797       5.02704618       8.65412107  F        0
H       17.22544067      10.92750153       8.65411313  F        0
H       19.36965547      14.75328399       4.82834093  F        0
H       17.22544070       8.65411150      10.92750362  F        0
H       20.85245744       5.02708867      10.92752556  F        0
H       11.39908935      12.70105073       3.24464026  F        0
H       21.54216027      12.99764967       6.60187561  F        0
H       24.89951425       2.85451703       6.89840128  F        0
H       15.05290853      12.70105704       6.89848521  F        0
H       19.78591980      14.73191782       1.24430354  F        0
H       28.68412771       8.95914275      -0.52719976  F        0
H       29.22534432       7.17131743       2.55494170  F        0
H       26.95194123       7.17131746       4.82834527  F        0
H       25.19630608       9.34383456       6.60185911  F        0
H       28.68420928       6.62630035      -2.86021198  F        0
H       26.95192867       1.27083937      -1.07240246  F        0
H       29.22533941       3.54426653      -1.07238230  F        0
H       25.19622735      -0.50276655      -3.24494277  F        0
H       19.36968740       1.27081557      -8.65438303  F        0
H       15.74261410       1.27081536      -5.02730892  F        0
H       15.44299305      12.70103244      -0.79954860  F        0
H       17.49833355      -0.50278089      -2.85477948  F        0
H       21.54221652      -0.50278066      -6.89866328  F        0
H       19.78593015       4.85484827      -8.63303166  F        0
H       15.76396555       4.85484859      -4.61106623  F        0
H       23.12589418      -2.55519498       1.07214050  F        0
H       24.89950013      -0.79949361       3.24468082  F        0
H       19.54187317      -2.53384464       1.48839915  F        0
Fe      20.72141861       4.17310039       0.81757390  T        0
Fe      19.96168914       6.75825884       2.64984275  T        1
O       19.90308994       6.06336299       0.75519891  T        2
O       19.16453337       5.11337902       1.70251913  T        3
