136
Lattice="24.397 0.0 0.0 0.0 24.397 0.0 0.0 0.0 24.397" Properties=species:S:1:pos:R:3:move_mask:L:1:tags:I:1 i=41 E=-6943.8331748197 regions="_JSON [\"Active\"]" n_terminators=32 energy=-912.293072990375 pbc="F F F"
O       21.66609980       2.61670746       0.07532874  T        0
O       21.89282254       6.18069323       3.52695868  T        0
O       15.56604769       9.68372795       6.24483771  T        0
O       21.00748072      12.46448229       3.52298524  T        0
O       21.00646401       3.56074040      12.50263638  T        0
O       15.53461457       6.31951856       9.75629377  T        0
O       21.85585747      -0.04212037       2.55917189  T        0
O       18.39740933       9.65187168       3.32836271  T        0
O       21.81237118       3.57624833       5.92443666  T        0
O       18.36153257       3.30580206       9.62552592  T        0
O       23.73611737       1.71715194       1.79614829  T        0
O       22.84752904       5.41363531       8.02409834  T        0
O       22.65722226       8.01898404       5.34710912  T        0
O       17.61904840      10.55702437       7.85001656  T        0
O       20.09154998      10.58814008       5.22845903  T        0
O       23.68961304       4.28136692       4.21809864  T        0
O       17.65842867       7.89059234      10.52412464  T        0
O       20.05886078       5.18822037      10.58743558  T        0
O       20.88318845       6.01512151       5.87600877  T        0
O       18.14389881       8.90469916       5.93125870  T        0
O       21.99608296      12.32003409       6.07745842  T        0
O       20.96961050       0.03491606       0.04122456  T        0
O       24.33384870       2.67514882       6.28677792  T        0
O       24.40183442       6.27251107       2.57394411  T        0
O       18.08248062       5.90697025       8.93893607  T        0
O       21.97143056       6.11096876      12.28069059  T        0
O       22.64520845       4.38015290       1.76635977  T        0
O       22.65267174       4.37914813      10.50593819  T        0
O       20.14972710       8.05571599       4.35582147  T        0
O       16.64249960       8.00721714       8.00648808  T        0
O       22.64924567      10.50375322       4.36268682  T        0
O       22.80958309       1.73847606       4.29499976  T        0
O       20.06966292       4.40587836       8.01256104  T        0
Al      23.33448830       3.03354338       0.76065588  T        0
Si      23.67358945       4.87696064       9.31507857  T        0
Si      21.40921819       7.13348958       4.80449235  T        0
Si      16.97547387       9.28186968       7.02028990  T        0
Si      21.39982630      11.48827083       4.79589486  T        0
Si      23.21458988       0.79166213       3.00787397  T        0
Si      19.17737686       9.32053318       4.74040936  T        0
Al      21.47269418       4.88358234       7.15322124  T        0
Si      23.61130484       9.28277349       4.86817355  T        0
Si      23.19724267       3.03959208       5.19189483  T        0
Si      19.15477172       4.71687118       9.29367045  T        0
Si      23.19618410       5.28395002       3.02615910  T        0
Si      21.38830337       4.80314477      11.47381660  T        0
Si      16.96560542       7.02627618       9.30017935  T        0
O       24.60876387       3.60821483       8.80835560  T        0
O       24.56442136       8.74401105       3.64321509  T        0
O       26.29632132       6.73105943       4.26728215  T        0
O       26.32918671       4.22504563       6.73885030  T        0
O       24.50568878       9.83679729       6.12683978  T        0
O       24.65389347       6.05303368       9.93621722  T        0
O       26.30824863       8.05670097       1.83104424  T        0
O       26.22470890       1.76194428       8.01328265  T        0
Si      25.41892352       7.46186173       3.07850906  T        0
Si      25.39530730       3.07922893       7.47839696  T        0
O       24.71290392       2.40387611      -2.80391098  T        0
O       26.27137803       1.82194631      -0.66656459  T        0
O       24.32812182      -0.17857963      -3.54308273  T        0
O       26.50729793       4.19080147      -2.06531998  T        0
Si      25.48556920       3.02953876      -1.48159716  T        0
O       24.60414286      -2.69966474       2.42481287  T        0
O       26.30479735      -0.64331857       1.84879979  T        0
O       24.44838051      -3.70357521      -0.07951455  T        0
O       26.32283539      -1.97934815       4.26789895  T        0
Si      25.41795953      -1.39960218       3.01698417  T        0
O       18.14258783       2.39088413      -3.61667434  T        0
O       20.81732727       2.42046935      -6.24070657  T        0
O       20.10247241       0.71184267      -4.33545341  T        0
O       22.67836785       1.01458860      -1.77105780  T        0
O       18.86896712       1.85367456      -8.06170618  T        0
O       16.30087139       1.87276672      -5.54709575  T        0
O       24.43726644       3.61828668      -0.40549578  T        0
O       18.28472325      -0.07783474      -2.48176049  T        0
O       21.96892021      -0.04865790      -6.15722558  T        0
O       18.32206245       3.45832009      -6.08604997  T        0
O       20.05965339       1.69805787      -1.85165630  T        0
O       22.61007184       1.67830955      -4.34260827  T        0
O       20.15613979       4.30214351      -7.91691510  T        0
O       16.49516244       4.31077349      -4.25747755  T        0
Si      19.12600484       1.18467222      -3.10446872  T        0
Si      21.35655141       1.19935112      -5.28498216  T        0
Si      23.60577020       1.23635106      -3.11694814  T        0
Si      19.54085597       3.01455513      -7.09429157  T        0
Si      21.33051762       1.30576776      -0.90770960  T        0
Si      17.29693153       3.01537004      -4.88427387  T        0
O       18.00991493      -3.43039065       2.45436316  T        0
O       21.00077747      -6.40675512       2.52296552  T        0
O       22.63928973      -1.89240959       0.79692642  T        0
O       20.00854289      -4.47111711       0.96680285  T        0
O       24.36256695      -0.25666714       3.51612619  T        0
O       18.36793060      -2.62868582      -0.13231330  T        0
O       21.90666300      -6.12216325      -0.05198784  T        0
O       20.09492441      -1.88780081       1.67538592  T        0
O       22.61273408      -4.38714717       1.71294089  T        0
Si      21.38444475      -0.95939622       1.27823273  T        0
Si      21.35395765      -5.35683654       1.29132075  T        0
Si      23.59009298      -3.16539497       1.21744583  T        0
Si      19.10383423      -3.13192033       1.24694039  T        0
H       15.43757914      10.38640764       5.57209357  F        0
H       20.10951523      12.72546585       3.23923157  F        0
H       20.10951519       3.23923103      12.72546793  F        0
H       15.43757911       5.57209275      10.38640946  F        0
H       17.77043279      10.38640226       3.23924444  F        0
H       17.77043311       3.23924387      10.38640412  F        0
H       17.22544067      10.92750153       8.65411313  F        0
H       17.22544070       8.65411150      10.92750362  F        0
H       21.54216027      12.99764967       6.60187561  F        0
H       21.54216028       6.60187434      12.99765198  F        0
H       26.95194123       7.17131746       4.82834527  F        0
H       26.95194124       4.82834452       7.17131883  F        0
H       25.19630608       9.34383456       6.60185911  F        0
H       25.19630604       6.60185806       9.34383627  F        0
H       26.93058105       7.58756876       1.24433203  F        0
H       26.93058086       1.24433163       7.58757011  F        0
H       26.95192867       1.27083937      -1.07240246  F        0
H       25.19622735      -0.50276655      -3.24494277  F        0
H       26.93057835       4.85486043      -1.48866112  F        0
H       26.95192866      -1.07240650       1.27083969  F        0
H       25.19622853      -3.24494603      -0.50276481  F        0
H       26.93057847      -1.48866524       4.85486109  F        0
H       19.36968740       1.27081557      -8.65438303  F        0
H       15.74261410       1.27081536      -5.02730892  F        0
H       17.49833355      -0.50278089      -2.85477948  F        0
H       21.54221652      -0.50278066      -6.89866328  F        0
H       19.78593015       4.85484827      -8.63303166  F        0
H       15.76396555       4.85484859      -4.61106623  F        0
H       17.77043326      -4.28747560       2.85995000  F        0
H       20.10952426      -6.62656664       2.85995001  F        0
H       17.49833238      -2.85478383      -0.50277915  F        0
H       21.54221602      -6.89866750      -0.50277915  F        0
Fe      20.39358692       4.37151036       4.61451003  T        0
Fe      20.70777898       3.48873854       1.58651778  T        1
O       19.71823239       2.99513604       3.28132547  T        2
O       19.39558490       4.41614680       2.85247571  T        3
