141
Lattice="20.102 0.0 0.0 0.0 19.731 0.0 0.0 0.0 13.253" Properties=species:S:1:pos:R:3:move_mask:L:1:tags:I:1 i=77 E=-3472.0240129048 regions="_JSON [\"Active\"]" n_terminators=36 energy=-937.0549534976797 pbc="F F F"
O        9.93218600      18.82491266       4.05691376  T        0
O        9.90808902      11.07392282       3.99457232  T        0
O        2.05537040      11.14029969       4.03216687  T        0
O       12.09524106      18.58442697       2.50558167  T        0
O       12.09510166      10.98690731       2.50691166  T        0
O       11.97477424      17.40297228       4.92886968  T        0
O       12.05693957      12.24184875       4.91210752  T        0
O        8.04077032       9.91130566       8.86162137  T        0
O       12.29228260      20.08917288       4.62448182  T        0
O       11.99769745       9.47592642       4.67751667  T        0
O        3.60903582      10.63930632       6.14736504  T        0
O        3.47537361       8.85610010       4.14570085  T        0
O       17.04395089      10.63533306       9.18421444  T        0
O       16.96141039      18.94236366       9.22643484  T        0
O        4.72012271      11.17537717       3.76582407  T        0
O        4.95921600      18.46218243       4.27818964  T        0
O        3.82463744      12.43836092       8.00782863  T        0
O        5.82803922       7.32192802       1.57324452  T        0
O       14.28184942      17.08287457      12.06334796  T        0
O       14.30338931      12.50526299      12.05291839  T        0
O        5.89462834      10.74393715       7.51729118  T        0
O        4.00331404       8.74921909       0.09952917  T        0
O        5.86627768      19.11399851       7.69212376  T        0
O        3.69020560       9.85767436       8.76521921  T        0
O        5.85991669       9.96443318       1.68249371  T        0
O        7.92703645      12.37378711       8.04934133  T        0
O        7.75934632      17.19410552       8.04197650  T        0
O        8.15962897      10.46312806       6.16544377  T        0
O        7.99239273      18.73052079       5.96539178  T        0
O        7.35964448      11.27735004       3.51936777  T        0
O        7.39663967      18.65753839       3.35284826  T        0
O        8.48483814       8.50692863       4.04315371  T        0
O       11.51062074      10.58280902       8.68316498  T        0
O       11.87209994      19.01139596       9.58235059  T        0
O        5.79336697      12.61655800       1.79157996  T        0
O        5.58728032      17.33969812       1.89534609  T        0
O       16.07887986      17.01795666       4.54607186  T        0
O       16.01266959      12.59165833       4.55442375  T        0
O        9.99949139      16.99964817       9.50429826  T        0
O        9.95648048      12.59883118       9.78197275  T        0
O       10.23188744       6.41319873       3.66693845  T        0
O        7.60059684      16.45707307      10.62539314  T        0
O        2.40048313       6.41769456       3.79979742  T        0
O        7.46481701      13.30407872      10.58235312  T        0
O       17.84842601      13.14093348       9.41717759  T        0
O       17.77643743      16.43857554       9.43053885  T        0
O        8.75578921      14.78797980       8.76640718  T        0
O        3.45312558       7.02348766       6.12497310  T        0
O       16.58565680      12.46726117       7.21165541  T        0
O       16.44791482      17.14428597       7.23676382  T        0
O        5.11606822       6.75469535       4.05508645  T        0
O       15.19457876      12.56768916       9.50002479  T        0
O       15.11956651      16.97752691       9.51424869  T        0
O        5.44864294      14.97498834       0.68986365  T        0
O       16.11067187      14.81102266       5.93932140  T        0
O        3.75580490      16.90110573      -0.08650562  T        0
O        3.85906417      12.89524491      -0.11581666  T        0
O       14.14956709      13.13881310       6.52835314  T        0
O       14.06007414      16.52534690       6.30543494  T        0
O       11.87025681      14.98746851       6.08628645  T        0
O        8.71522589       6.47272125       5.82271475  T        0
O       11.34850279      12.96783110       7.59888244  T        0
O       11.76599735      17.21950478       7.53610454  T        0
O        7.61470378       6.16530481       3.33289747  T        0
O       12.60357815      12.72888320       9.97722495  T        0
O       12.54747712      16.56669000      10.02162091  T        0
O        5.61778777       4.79826415       2.24460934  T        0
O       14.25018788      14.74862373      10.76372304  T        0
Si      11.56358740      18.71687681       4.05828558  T        0
Si      11.56580629      10.96747481       4.07456279  T        0
Si       3.46906304      10.44690198       4.53148907  T        0
Si       4.27488819      10.90019889       7.62299994  T        0
Si       5.53484741       8.67831310       0.72164410  T        0
Si       7.51994293      10.83300001       7.58631635  T        0
Si       7.45949814      18.72734945       7.50363003  T        0
Al       8.45101178      10.13958187       4.47455522  T        0
Si       8.41474971      19.26620434       4.48438698  T        0
Si       5.93109427      11.24376779       2.67898937  T        0
Si       5.82613354      18.62738406       2.88156719  T        0
Si       8.50536675      16.40197941       9.25535919  T        0
Si       8.50687720      13.20898257       9.32688472  T        0
Si       3.62423728       7.26110333       4.50481411  T        0
Si      16.64406966      12.19827020       8.82303662  T        0
Si      16.56376982      17.38280374       8.85356890  T        0
Si       5.28340156      16.59224368       0.47397562  T        0
Si       5.36328212      13.37174228       0.39589620  T        0
Si      15.68695816      13.22192785       6.05102667  T        0
Si      15.66998775      16.37759436       6.00712044  T        0
Al      12.47993400      13.28350039       6.22006046  T        0
Si      12.44208234      16.52034032       6.21049854  T        0
Si       8.77173282       6.93128634       4.22299655  T        0
Si      11.38073823      12.19210551       9.04632419  T        0
Si      11.52938302      17.46515272       9.13858167  T        0
Si       6.07271605       6.27584649       2.80283525  T        0
Si      14.09024110      13.13886840      10.54746347  T        0
Si      14.06705305      16.36258435      10.59418563  T        0
O        8.38999662      19.69964686       8.46689087  T        0
O        5.35878958      20.03904894       2.16572942  T        0
O        8.29746581      20.90331751       4.62685763  T        0
O        6.57902581       8.61328086      -0.54661244  T        0
O        6.36382344      17.25697166      -0.57306175  T        0
O        6.44163356      13.01967446      -0.79572285  T        0
H        1.81269882      11.30123319       3.09859993  F        0
H       13.03074803      18.74401529       2.26762503  F        0
H       13.03074804      10.85204106       2.26762503  F        0
H        8.32625906       8.98649408       8.81306681  F        0
H       12.34310542      20.30287261       5.56688324  F        0
H       12.34314048       9.29328245       5.56696388  F        0
H       16.64303307       9.81912404       8.84117322  F        0
H       16.64304187      19.77694965       8.84122497  F        0
H        4.05829635      18.79668859       4.41071282  F        0
H        4.03182275      12.92715973       8.82439874  F        0
H       14.40563884      18.04556895      12.19637069  F        0
H       14.40563885      11.55048737      12.19637067  F        0
H        3.12887899       8.92429365       0.49683426  F        0
H        5.06295559      18.75104696       7.26028496  F        0
H        4.11249823       9.08086468       9.18193973  F        0
H       11.52310774       9.76092419       9.21110646  F        0
H       11.52310955      19.83515307       9.21116341  F        0
H       15.87290964      17.87210703       4.12309272  F        0
H       15.87290964      11.72394929       4.12309273  F        0
H       11.09748793       6.69447189       4.02620164  F        0
H        6.74596320      16.92620537      10.74076342  F        0
H        2.04924741       6.48050321       2.89306910  F        0
H        6.74596321      12.66985099      10.74076342  F        0
H       18.05303808      13.25020103      10.35989921  F        0
H       18.05303809      16.34585533      10.35989921  F        0
H        4.18307623       6.74908279       6.70466819  F        0
H        2.98936131      16.34896307       0.14601228  F        0
H        2.98936131      13.24709329       0.14601228  F        0
H        8.00892554       6.80873427       6.39739775  F        0
H        5.99116592       4.00312854       2.66051272  F        0
H        8.32625906      20.60985804       8.81306681  F        0
H        5.72719026      20.39380587       1.33756863  F        0
H        8.66651872      21.47399316       3.93953912  F        0
H        6.58577874       9.14969547      -1.35751146  F        0
H        6.36643797      17.19386972      -1.54340896  F        0
H        6.36643797      12.40218664      -1.54340896  F        0
Fe       9.89663112      14.38330069       6.77007249  T        0
Fe       8.69550816      12.76542475       4.17222462  T        1
O        8.86855566      14.20749851       5.24461927  T        2
