136
Lattice="19.123 0.0 0.0 0.0 14.277 0.0 0.0 0.0 7.5465" Properties=species:S:1:pos:R:3:move_mask:L:1:tags:I:1 i=128 E=-2603.9155142701 regions="_JSON [\"Active\"]" n_terminators=32 energy=-912.0504646916205 pbc="F F F"
O        6.17040422       1.29845230       2.26613491  T        0
O       15.63103626       8.48073918       5.73334092  T        0
O       13.04992190       1.10693549       1.44570639  T        0
O        3.39556264       8.47160447       5.88458578  T        0
O        6.08992041      13.12829532       1.50594501  T        0
O       15.51565969       5.79219335       5.76792144  T        0
O       13.20360436      13.16375581       1.36403072  T        0
O        3.40982928       5.77903352       5.88039136  T        0
O       12.88910600      13.02182967       5.63743849  T        0
O        3.34555852       5.79655534       1.66356300  T        0
O        6.26123003      13.02569936       5.54535238  T        0
O       15.64182865       5.76691837       1.75343143  T        0
O       13.03203440       1.09673965       6.07528874  T        0
O        3.48364909       8.46432192       1.64565602  T        0
O        6.10363515       1.12894664       6.04840639  T        0
O       15.66925785       8.44078890       1.77968533  T        0
O        7.30669720       3.63149251       2.38806040  T        0
O       17.25692271      10.56236748       6.21591744  T        0
O       11.90379553       3.37111573       2.45237394  T        0
O        1.91821333      10.71792536       6.12969791  T        0
O        7.13459593      10.80509514       2.55038173  T        0
O       17.15249359       3.70761578       6.23019193  T        0
O       12.13387219      10.92904273       2.55342486  T        0
O        2.02234308       3.45366309       6.07548758  T        0
O       12.05618765      10.45780964       5.39811148  T        0
O        2.02704637       3.42368412       1.45832385  T        0
O        7.19036869      10.62774005       5.23195128  T        0
O       17.16256654       3.54682424       1.42638840  T        0
O       11.92691621       3.39147094       5.09140749  T        0
O        1.93220594      10.67255729       1.40082438  T        0
O        7.28279017       3.41005892       5.05145685  T        0
O       17.27254131      10.55407855       1.33088247  T        0
O        6.61163758       2.61822226      -0.05389335  T        0
O       16.25563390      10.13124118       3.74639269  T        0
O       12.51203913       3.27557868      -0.04304253  T        0
O        2.95329266      10.04149624       3.75355706  T        0
O        6.61376283      11.01686286      -0.02703013  T        0
O       16.13273238       4.12039417       3.79354326  T        0
O       12.58763296      10.97306141      -0.03331971  T        0
O        3.11660184       4.13165795       3.75959584  T        0
O        4.71331338       3.51061953       1.66892973  T        0
O       14.67015515      10.99913601       5.70546616  T        0
O       14.49709614       3.34057515       1.83009929  T        0
O        4.55697677      10.90911697       5.68249964  T        0
O        4.58469085      10.91038931       1.80019861  T        0
O       14.51848025       3.30539591       5.76583104  T        0
O       14.64881727      10.93511002       1.73593356  T        0
O        4.70760212       3.42926449       5.77116500  T        0
O       11.36950071       8.30919669       3.81696209  T        0
O        7.78615352       8.45920383       3.77555370  T        0
O       11.59257804       5.68870581       3.76956813  T        0
O        7.87999718       5.81702312       3.90914672  T        0
O        9.49937668      10.43544093       3.84768009  T        0
O        9.62941988       3.87931379       3.78253549  T        0
O       13.31224756       7.27439349       5.19135459  T        0
O        5.61826639       7.13813827       5.16504601  T        0
O        5.65175140       6.99830684       2.34135945  T        0
O       13.46572472       7.12712115       2.48059205  T        0
O       14.15193840       7.12428490      -0.06350281  T        0
O        5.00331562       7.01731650      -0.10970180  T        0
Si       6.16927809       2.78713782       1.53163334  T        0
Si      15.95598911      10.05354390       5.34503236  T        0
Si      13.02129376       2.75847264       1.42720946  T        0
Si       3.21573447      10.02046860       5.37405268  T        0
Si       6.08673383      11.47240192       1.47150713  T        0
Si      15.82611423       4.20761384       5.39726461  T        0
Si      13.13349526      11.50864537       1.42674747  T        0
Si       3.32088593       4.21432845       5.38943316  T        0
Si      13.16591831      11.47276382       6.11341173  T        0
Si       3.30667125       4.22585860       2.13158122  T        0
Si       6.04548060      11.46548883       6.04635086  T        0
Si      15.84801646       4.19277400       2.17567496  T        0
Si      13.01808237       2.74707237       6.12094065  T        0
Si       3.25543223      10.01218927       2.13814459  T        0
Si       6.17061327       2.78071018       6.09631633  T        0
Si      15.93482776      10.02655438       2.13168421  T        0
Al      11.20496782      10.16260389       3.76661222  T        0
Si       7.90619330      10.12869437       3.83621309  T        0
Si      11.25022406       4.05718532       3.77081254  T        0
Si       7.99810372       4.15835920       3.78422779  T        0
Si      14.73055897       7.17230739       6.08158994  T        0
Si       4.33672059       7.13106522       6.12117763  T        0
Si       4.35522647       7.08266088       1.40647787  T        0
Si      14.76839431       7.11943984       1.45923635  T        0
Si      12.46609107       7.06934704       3.74298161  T        0
Al       6.58611687       7.10445256       3.75756426  T        0
O        6.24329844      13.02430119       9.77888103  T        0
O       12.88578483      13.01910091       9.78948332  T        0
O        7.24300654      10.50209061       9.94380374  T        0
O       11.89111242      10.48271533       9.94542436  T        0
O        6.71539673       3.19968346       7.59631407  T        0
O       12.49884854       3.26234611       7.58982920  T        0
O        6.24711681      11.31218897       7.66767739  T        0
O       12.97814171      11.24579414       7.72468004  T        0
O        4.51419027      11.06034588       9.77707905  T        0
O       14.62125793      11.03822182       9.88197663  T        0
O       14.14395055       7.27430525       7.62749755  T        0
O        4.98783372       7.15371991       7.63794473  T        0
Si       6.05704881      11.44873297       9.29408142  T        0
Si      13.09970216      11.43995924       9.36004561  T        0
H        5.61083456       0.52083913       2.07985367  F        0
H       13.50938118       0.51971906       2.07492992  F        0
H        5.61112307      13.75835362       2.07975607  F        0
H       13.50958039      13.75682243       2.07498241  F        0
H       13.51084140      13.75504172       5.44776650  F        0
H        5.62495998      13.75277707       5.44935724  F        0
H       13.50975252       0.52161770       5.44778410  F        0
H        5.62509051       0.52255101       5.44942550  F        0
H       17.28974254      11.12548174       7.01862795  F        0
H        1.83343022      11.12554006       7.01950242  F        0
H       17.28979000       3.14560285       7.02339196  F        0
H        1.81954193       3.15353441       6.98813474  F        0
H        1.83183800       3.14857954       0.53722786  F        0
H       17.29134854       3.14797220       0.53999843  F        0
H        1.83154049      11.12909684       0.54034962  F        0
H       17.29120144      11.12876736       0.54010345  F        0
H        6.35952436       2.97904956      -0.93427223  F        0
H       12.76076393       2.97683097      -0.93375646  F        0
H        6.36236324      11.29726414      -0.93275871  F        0
H       12.76174962      11.29928001      -0.93393629  F        0
H       14.60982961       7.13673871      -0.92783774  F        0
H        4.51175007       7.13509558      -0.92932085  F        0
H        5.61112307      13.75835362       9.62625607  F        0
H       13.50958039      13.75682243       9.62148241  F        0
H        7.72879001      10.28772525      10.77169866  F        0
H       11.39439525      10.28733182      10.77116771  F        0
H        6.35949513       2.97597070       8.47938261  F        0
H       12.76321398       2.97604733       8.47995589  F        0
H        3.92251131      10.29939702       9.62769700  F        0
H       15.20026252      10.29732969       9.62683702  F        0
H       14.61405599       7.13800201       8.47661577  F        0
H        4.50898861       7.14016697       8.47499567  F        0
Fe      11.65507992       8.56974518       6.15338905  T        0
Fe       9.30380356       7.27087723       4.57270349  T        1
O        9.70940211       8.18977859       6.45389477  T        2
O       10.47033533       6.91979885       6.25764244  T        3
