133
Lattice="20.102 0.0 0.0 0.0 19.731 0.0 0.0 0.0 13.253" Properties=species:S:1:pos:R:3:move_mask:L:1:tags:I:1 i=77 E=-3472.0240129048 regions="_JSON [\"Active\"]" n_terminators=34 energy=-879.6647875752415 pbc="F F F"
O       10.04917929       8.45008625       9.31966544  T        0
O        9.88231431      18.72021445       3.95623340  T        0
O       10.07133643      11.28204550       4.17354309  T        0
O        2.30524005      11.39086253       3.93969878  T        0
O        7.69563467       8.23244491      10.61226581  T        0
O       12.07887154      18.69825624       2.48579642  T        0
O       12.17114127      11.10177195       2.64769888  T        0
O        7.92932482       7.32084421       8.13122640  T        0
O       12.13526469      17.54461979       4.90439713  T        0
O       12.27990219      12.62684238       4.86890550  T        0
O        7.95213111       9.98537228       8.65640113  T        0
O       11.95728692      20.24026368       4.68078906  T        0
O       12.23647712       9.99025053       5.14176714  T        0
O        3.70655068      10.80144543       6.10203407  T        0
O        3.06066519       8.86778970       4.23470493  T        0
O        4.94175704      10.73669152       3.75615660  T        0
O        4.88604945      18.34198648       4.19254169  T        0
O        3.64033995      12.07237229       8.54398356  T        0
O       14.03211332      17.15392428      12.10189623  T        0
O       14.24145490      12.51063045      12.13245719  T        0
O        5.93243062      11.24498061       7.50187656  T        0
O        5.87021975      19.19923126       7.59315484  T        0
O       14.24340541       8.83940184       6.54193311  T        0
O        4.05252628       9.40097653       8.26211181  T        0
O        6.38310231       9.84893446       1.64186774  T        0
O        8.15741021      12.57282108       7.98694062  T        0
O        7.86667204      17.43315752       8.02371533  T        0
O       12.46228873       7.38099301       5.07780824  T        0
O        8.15554342      10.73120367       6.08574395  T        0
O        7.93015835      18.79874359       5.78699794  T        0
O       11.81595109       8.53855133       7.37816762  T        0
O        7.53252719      11.35976948       3.43393444  T        0
O        7.31897911      18.38938241       3.22293543  T        0
O       12.57738847       8.37438344      10.00245641  T        0
O        8.61758766       8.64831693       4.02452813  T        0
O       11.50327857      10.66334979       8.90882741  T        0
O       12.01684403      19.01431604       9.37297115  T        0
O        5.68311488      12.48193090       1.87420836  T        0
O        5.42523269      17.19024983       1.83635869  T        0
O       10.09088583      17.06887701       9.51948205  T        0
O       10.00895028      12.98370424       9.79823921  T        0
O       10.24012102       6.54787327       3.70781661  T        0
O        7.70721206      16.76737410      10.64061412  T        0
O        7.31804255      13.41247837      10.48714782  T        0
O       12.62392052       6.43002720       2.59649364  T        0
O        8.59583700      14.98206695       8.76133321  T        0
O       12.05708202       4.83537013       4.73578043  T        0
O       15.68153346      12.61418257       9.95066567  T        0
O       15.41488573      17.22588025       9.91049893  T        0
O        5.48662440      14.81951129       0.68294768  T        0
O        3.79829229      16.66613765      -0.28939707  T        0
O        5.97905877       6.59462271       6.39282495  T        0
O        3.82445912      12.80567070      -0.09526523  T        0
O       14.08891312      13.18120354       6.82280414  T        0
O       14.20742343      16.96789772       6.55271413  T        0
O        7.71633208       4.74746233       7.46898892  T        0
O       12.43760148      15.07865415       5.81649605  T        0
O        8.45833934       6.53647441       5.62858762  T        0
O       11.43834477      13.17851879       7.37169748  T        0
O       11.69636538      17.09984270       7.44711227  T        0
O        7.72235919       6.29189242       3.02733846  T        0
O       12.97030454      12.96108061       9.76589031  T        0
O       12.74064630      16.55126310       9.81466266  T        0
O       14.46578271      14.84100234      10.86358110  T        0
Si       8.43358925       8.48981372       9.15770590  T        0
Si      11.51520242      18.78599684       4.03072081  T        0
Si      11.71986668      11.22090039       4.22407206  T        0
Si       3.51678557      10.43090365       4.51453175  T        0
Si       4.34054582      10.89372229       7.61341174  T        0
Si       7.54985303      11.07393272       7.51989655  T        0
Si       7.47350122      18.88451391       7.34204948  T        0
Si      12.68603810       8.68030997       6.02774472  T        0
Al       8.59778434      10.27747858       4.47455353  T        0
Si       8.33171004      19.17145582       4.24452692  T        0
Si      11.53012476       9.05784458       8.92128956  T        0
Si       6.08473659      11.10428578       2.65842474  T        0
Si       5.74188325      18.48732490       2.78664342  T        0
Si       8.55284577      16.59755774       9.23920163  T        0
Si       8.52812445      13.42125786       9.38901770  T        0
Si      11.81825458       6.30368413       4.03290293  T        0
Si       5.27925475      16.42410919       0.40961113  T        0
Si       5.33810921      13.21392976       0.44213153  T        0
Si       7.52074445       6.29671339       6.92711851  T        0
Si      12.58706483      13.49942939       6.21665418  T        0
Si      12.62291250      16.66579105       6.17880754  T        0
Si       8.73297850       7.04215833       4.09775347  T        0
Al      11.51691206      12.37712618       9.07888221  T        0
Si      11.62515238      17.44879169       9.05611102  T        0
Si      14.29577562      13.22155003      10.63711552  T        0
Si      14.17050347      16.42013372      10.63593994  T        0
O        8.39567510      20.09693564       7.98875424  T        0
O        5.28943127      19.89460443       2.05295414  T        0
O        8.02470618      20.75520244       3.93339729  T        0
O        6.42540590      17.05159945      -0.58513984  T        0
O        6.46120014      12.64516659      -0.60932211  T        0
H        1.81269882      11.30123319       3.09859993  F        0
H        7.07153747       8.87866318      10.98534327  F        0
H       13.03074803      18.74401529       2.26762503  F        0
H       13.03074804      10.85204106       2.26762503  F        0
H       12.34310542      20.30287261       5.56688324  F        0
H        3.60112680       8.06005012       4.30646574  F        0
H        4.05829635      18.79668859       4.41071282  F        0
H        4.03182275      12.92715973       8.82439874  F        0
H       14.40563884      18.04556895      12.19637069  F        0
H       14.40563885      11.55048737      12.19637067  F        0
H        5.06295559      18.75104696       7.26028496  F        0
H       15.03932990       8.88569483       5.99268334  F        0
H        4.11249823       9.08086468       9.18193973  F        0
H        5.72719027       9.20254625       1.33756862  F        0
H       13.54926599       8.42132791      10.11787432  F        0
H       11.52310955      19.83515307       9.21116341  F        0
H        6.74596320      16.92620537      10.74076342  F        0
H        6.74596321      12.66985099      10.74076342  F        0
H       13.35632228       7.06085325       2.51220488  F        0
H       11.61525895       4.01919395       4.45233654  F        0
H       15.75661379      12.42699387       9.00459924  F        0
H       15.75661380      17.16906248       9.00459925  F        0
H        2.98936131      16.34896307       0.14601228  F        0
H        5.18772305       6.48136951       6.94399129  F        0
H        2.98936131      13.24709329       0.14601228  F        0
H       14.91456245      13.24933472       6.30897701  F        0
H       14.91456244      16.34672163       6.30897701  F        0
H        7.92514400       4.01763560       6.85279547  F        0
H        6.78202892       6.52695113       2.93525138  F        0
H        8.32625906      20.60985804       8.81306681  F        0
H        5.72719026      20.39380587       1.33756863  F        0
H        8.66651872      21.47399316       3.93953912  F        0
H        6.36643797      17.19386972      -1.54340896  F        0
H        6.36643797      12.40218664      -1.54340896  F        0
Fe       9.58807013      13.95511286       6.86488200  T        0
Fe       8.68996736      12.92606316       4.01425222  T        1
O        8.24025600      14.36432572       5.40449836  T        2
O        9.63580671      14.48553310       4.83902770  T        3
