132
Lattice="20.102 0.0 0.0 0.0 19.731 0.0 0.0 0.0 13.253" Properties=species:S:1:pos:R:3:move_mask:L:1:tags:I:1 i=77 E=-3472.0240129048 regions="_JSON [\"Active\"]" n_terminators=34 energy=-875.0103829262714 pbc="F F F"
O       10.20038814       8.41649242       9.08372321  T        0
O        7.90663286       8.83213953      10.39806603  T        0
O        8.02832607       7.17698002       8.22486548  T        0
O       12.61571807      17.49004736       4.85135710  T        0
O       11.86418915      12.78880588       4.59110402  T        0
O        8.22405769       9.86532487       7.97202524  T        0
O        3.39340860      10.41070457       6.21905520  T        0
O        6.31732459       8.57065478      13.00075182  T        0
O        6.51051441      10.82639105      11.34231030  T        0
O        4.98854484       8.35375801      10.49010696  T        0
O       15.37775642       9.20965299       9.50006961  T        0
O        3.92600446      12.46483028       7.93031705  T        0
O       13.88363193      17.24397808      12.02408895  T        0
O       14.76494997      12.41778310      11.85293622  T        0
O        5.93677939      10.88701007       6.96957065  T        0
O       16.14046009      10.31886075      12.87763054  T        0
O        4.05588837      10.00798345       8.70093263  T        0
O       13.88788855       9.93599268      11.44454966  T        0
O        7.80635930      12.51177140       7.86728996  T        0
O        7.77821557      17.18727372       7.73166934  T        0
O        8.27826297      11.22497824       5.62084672  T        0
O       12.31126517       8.45427778       7.35961105  T        0
O        2.33924980       8.29127532       9.86659996  T        0
O       12.79441493       8.22932362       9.86245171  T        0
O       11.74971862      10.55207779       9.06734498  T        0
O       11.89984017      18.97807562       9.45649899  T        0
O        4.13011878       7.42172319       8.12997606  T        0
O       14.86226875       7.33360563      11.40431415  T        0
O        9.99410486      17.02110696       9.34526542  T        0
O       10.06989614      12.90081491       9.21139801  T        0
O        7.67624865      17.07260413      10.49155421  T        0
O        7.74025770      12.85715056      10.51093761  T        0
O        8.31213225      14.93787122       8.92179419  T        0
O        3.62518522       6.52057479       5.62268185  T        0
O        6.16172830      13.12197859      12.69400584  T        0
O        5.00521534      12.85943584      10.32590858  T        0
O       15.29723775      13.23191021       9.28090233  T        0
O       15.38606093      17.14428457       9.90512331  T        0
O        4.20327476       4.87740265       7.67333866  T        0
O        6.10294011       6.46256336       6.54723223  T        0
O       14.29758897      13.33743590       5.56484743  T        0
O       14.18074145      16.67622684       6.84607306  T        0
O        8.31516815       4.90703479       6.70011662  T        0
O       12.22828513      15.03212116       5.88934815  T        0
O        8.50928588       7.43435928       5.71464036  T        0
O       12.30454727      12.73182005       7.27245827  T        0
O       11.67000618      17.23228559       7.34488883  T        0
O        2.36216517      13.30758825      10.09302142  T        0
O       12.76063566      12.68169415      10.19554967  T        0
O       12.64665594      16.54160352       9.71970010  T        0
O        4.08429552      14.88806337       8.79885463  T        0
O       14.21499924      14.87508531      10.92994183  T        0
Si       8.57067549       8.55784102       8.91155800  T        0
Al       6.32836204       9.02201428      11.32352030  T        0
Si       4.36111486      10.95870170       7.42841332  T        0
Si      14.67036700      10.94212664      12.53817719  T        0
Si       7.56060091      11.08693920       7.09547986  T        0
Si      11.72228106       8.94250894       8.81115991  T        0
Si       3.88859229       8.49996103       9.32814733  T        0
Si      14.25258539       8.57819303      10.52437753  T        0
Si       8.44007726      16.56236921       9.11152746  T        0
Si       8.52677547      13.32994721       9.09384334  T        0
Si       6.28200434      12.44031334      11.21921416  T        0
Si       4.52247209       6.33832873       6.99230700  T        0
Si       7.71396058       6.44625113       6.78256514  T        0
Si      12.66771714      13.44785608       5.87531234  T        0
Si      12.65456643      16.57580771       6.21825364  T        0
Al      11.66215546      12.32961411       8.80289965  T        0
Si      11.52685766      17.45714197       8.96194487  T        0
Si       3.81543042      13.34943825       9.30257193  T        0
Si      14.23730299      13.30721142      10.54916136  T        0
Si      14.04408019      16.47363304      10.58033275  T        0
O       10.11993916      11.25625625      17.60152510  T        0
O       12.36843243      10.86435115      16.19826892  T        0
O       12.28425978      12.74898951      18.10963484  T        0
O       12.36610545      10.26000087      18.85153591  T        0
O       13.59868979      10.85801961      13.77782690  T        0
O       14.16362659       8.88992179      15.59831916  T        0
O        4.95747102      11.15789230      17.51982174  T        0
O       15.00324080      11.42530220      15.77044905  T        0
O        5.24555308       7.31308123      15.15438580  T        0
O        3.91383422       9.38211743      14.07656919  T        0
O        6.08009888       9.85237982      15.34498884  T        0
O        8.35124838      10.13802407      19.34892071  T        0
O        7.51984113      11.24583513      17.01313015  T        0
O        9.11882042       8.97006374      17.07410537  T        0
O        5.86113651      12.51493542      15.31919497  T        0
O        5.26462372      14.98646837      14.39326067  T        0
O        3.71463095      12.81546980      13.88093889  T        0
Si      11.75139878      11.25280452      17.68208419  T        0
Si      13.72779031      10.47379086      15.38385634  T        0
Si       5.41722419       8.74547674      14.33540928  T        0
Si       8.71948665      10.41711699      17.76164340  T        0
Si       6.04632506      11.18209439      16.27722380  T        0
Si       5.25697669      13.36731868      14.06031631  T        0
H       11.77741499      17.76721957       4.45015374  F        0
H       11.77741500      11.82883679       4.45015372  F        0
H        3.46536401      10.58100877       5.26900439  F        0
H       16.04398914       8.93133647       8.84225548  F        0
H       14.40563884      18.04556895      12.19637069  F        0
H       16.97340651      10.80641058      12.75613404  F        0
H        7.69777211      18.11826613       7.44841170  F        0
H        8.50665683      10.58475679       4.91774357  F        0
H       12.20788617       8.97653229       6.55602501  F        0
H        1.92726146       8.79770260      10.59110356  F        0
H       11.52310955      19.83515307       9.21116341  F        0
H       14.56690736       6.77574372      12.16034191  F        0
H        6.74596320      16.92620537      10.74076342  F        0
H        3.68470478       7.32851759       5.08310689  F        0
H       15.75661379      12.42699387       9.00459924  F        0
H       15.75661380      17.16906248       9.00459925  F        0
H        4.37526294       4.01828352       7.26036481  F        0
H       14.91456245      13.24933472       6.30897701  F        0
H       14.91456244      16.34672163       6.30897701  F        0
H        7.92514400       4.01763560       6.85279547  F        0
H        8.61892990       7.41665368       4.74740481  F        0
H        1.73086689      12.60761804      10.35624453  F        0
H        4.05997682      15.72757570       9.28699687  F        0
H       12.25872463      13.00694285      19.04928406  F        0
H       12.34314048       9.29328245      18.81996388  F        0
H       13.65226955       8.06005012      15.57301841  F        0
H        4.05829635      10.79936776      17.66371281  F        0
H       15.58095515      11.20568437      16.50370227  F        0
H        6.01932001       6.80354450      15.45091456  F        0
H        3.12887899       8.92429365      13.74983426  F        0
H        7.89439933      10.75417195      19.94994328  F        0
H        8.66651872       8.12235896      17.19253912  F        0
H        5.67587981      15.71242072      13.88688066  F        0
H        2.98936131      13.24709329      13.39901228  F        0
Fe       8.62272213      10.74405726      11.20626506  T        0
Fe      11.94102542      10.92699998      11.21919439  T        0
O       10.28081280      10.81773482      11.94677630  T        0
