133
Lattice="20.102 0.0 0.0 0.0 19.731 0.0 0.0 0.0 13.253" Properties=species:S:1:pos:R:3:move_mask:L:1:tags:I:1 i=77 E=-3472.0240129048 regions="_JSON [\"Active\"]" n_terminators=28 energy=-916.9197119947098 pbc="F F F"
O       10.25000410       1.39887313       9.68125881  T        0
O       10.17130236       8.96361153       9.69323356  T        0
O       10.05515278      11.69988849       4.02063830  T        0
O        7.76820288       1.35477118      10.65194296  T        0
O        2.21754911      11.46205131       3.96378980  T        0
O        7.66257560       8.92912606      10.41588561  T        0
O        8.19767735       2.75059251       8.52037290  T        0
O        8.48791786       7.31287689       8.34690121  T        0
O        8.37975935       0.08315773       8.29885482  T        0
O        8.30825950       9.91796287       8.02831364  T        0
O        6.48930859       0.46184114      12.89640660  T        0
O        3.47801495      10.75858982       6.13566741  T        0
O        6.51947092       8.77341850      12.76816974  T        0
O        3.37048227       9.05303905       4.08773665  T        0
O        5.89564966      10.90906107      11.17225817  T        0
O        3.63444650       0.84358655       4.13607152  T        0
O        5.07380941       1.00706036      10.64995975  T        0
O        4.91921290      11.29196372       3.97883841  T        0
O        5.02849905       8.52449716      10.51424051  T        0
O        6.22159464       2.56480324       1.21253080  T        0
O        4.02854627      12.57225167       7.92196919  T        0
O        5.91194971       7.44816300       1.12368916  T        0
O        3.83704358       1.53323538       0.80001942  T        0
O        5.87970351      10.67824423       7.18856981  T        0
O        3.94974281       8.94710933      -0.02319383  T        0
O        5.92205561      -0.06996207       1.52136097  T        0
O        3.78275761       9.99144098       8.67011072  T        0
O        5.58729429       9.99662246       1.86007248  T        0
O        7.39407005      12.45504235       8.25684485  T        0
O       12.07408427       7.33643306       5.80060654  T        0
O       12.53815565       2.54651033       5.52710181  T        0
O        8.13970118      11.35154642       5.87377856  T        0
O        2.50169479       1.56862691       9.99755428  T        0
O        7.51960387      11.11875652       3.32960794  T        0
O        2.39761389       8.14496697      10.05671767  T        0
O        9.13323480       9.27249750       4.46706540  T        0
O        9.02042958       0.80353089       3.79899016  T        0
O        4.35879370       2.49330968       8.53367573  T        0
O        5.99674371      12.70664846       1.91434249  T        0
O        4.06518402       7.33878474       8.29064508  T        0
O       10.25814833       3.13008298       4.14356873  T        0
O       10.46750514       7.05210771       3.65493710  T        0
O        3.00350383       6.62994942       3.02141704  T        0
O        2.13296118       3.05175674       3.80355916  T        0
O       12.43731689       2.94092014       2.79026995  T        0
O       13.16104846       7.24163443       3.44223169  T        0
O       12.04747928       4.99680914       4.52427329  T        0
O        3.67667968       6.88947266       5.68172131  T        0
O        3.61579983       2.71667739       5.97200482  T        0
O        5.40152721       7.39087692       3.73347701  T        0
O        4.83129355       3.19688454       3.64746983  T        0
O        4.30847694       4.88075893       7.35137838  T        0
O        6.11668188       6.73619900       6.74079209  T        0
O        6.15083671       3.00441210       6.72720825  T        0
O        8.09476867       4.75452512       6.69216380  T        0
O        8.44385558       6.82221080       5.31910396  T        0
O        8.57818795       2.25012733       5.99162295  T        0
O        7.93974893       7.49527630       2.85222609  T        0
O        7.70031046       3.19898954       3.70890259  T        0
O        6.59106066       5.26169970       2.72156942  T        0
Si       8.65680636       1.35972122       9.27353628  T        0
Si       8.64277324       8.73274738       9.11472196  T        0
Si       6.51194651       0.49196773      11.25145015  T        0
Si       3.51996374      10.62886323       4.52226728  T        0
Si       6.28706637       9.30166528      11.22133184  T        0
Si       5.46322511       1.24670973       0.64939883  T        0
Si       4.30579356      11.01010715       7.51354759  T        0
Si       5.46240387       8.96144591       0.62518412  T        0
Si       7.44269597      11.09191934       7.32912268  T        0
Si       8.69778581      10.85907439       4.42353121  T        0
Si       3.98868374       1.19080569       9.42509100  T        0
Si       6.00136551      11.29489721       2.75232078  T        0
Si       3.84550222       8.51583821       9.38040238  T        0
Si      11.86188145       3.38406487       4.26851380  T        0
Si      11.92060372       6.61869618       4.32532466  T        0
Si       3.82354206       7.48427900       4.17130744  T        0
Si       3.57877771       2.46741582       4.34712608  T        0
Si       4.55945324       6.46399478       7.01477353  T        0
Si       4.58581683       3.29475835       7.13730196  T        0
Al       7.80087521       6.51398168       6.99090910  T        0
Si       7.73555149       3.19200239       7.03476853  T        0
Si       9.01802547       7.71088570       4.06809654  T        0
Si       8.88894625       2.29333269       4.39327169  T        0
Si       6.42715870       6.89269017       2.57011270  T        0
Al       6.22047680       3.47880548       2.67826785  T        0
O        5.73306319       0.95810522      -0.95702432  T        0
O        6.49823944       9.55674428      -0.49091741  T        0
O       10.03339551      -1.67342087       3.80582924  T        0
O        2.17535321      -1.43405872       4.00420628  T        0
O        3.84349561      -1.08606009       6.00548963  T        0
O        6.92043194      -1.00550632      10.69067949  T        0
O        4.81628028      -1.43386804       3.53325706  T        0
O        4.46971120      -2.77824237       8.00483330  T        0
O        6.19082388      -0.92862571       7.22256751  T        0
O        3.97521326      -0.18150865       8.52632826  T        0
O        8.35671893      -2.56583879       7.67301760  T        0
O        8.43138918      -0.81450633       5.80854493  T        0
O        7.46560016      -1.28089885       3.36193359  T        0
O        6.24041358      -2.75129833       1.66220683  T        0
Si       3.62035877      -0.75357520       4.41777277  T        0
Si       4.60550431      -1.23446156       7.44058024  T        0
Si       7.81249356      -1.06563938       7.28983747  T        0
Si       8.73172615      -0.76229008       4.21615986  T        0
Si       6.08341759      -1.35276263       2.51001837  T        0
H       10.95532306       1.01526715       9.12727255  F        0
H       10.95532307       8.85008497       9.12727255  F        0
H       10.94686465      11.30097846       4.04088346  F        0
H        1.81269882      11.30123319       3.09859993  F        0
H        6.01931354       0.95312461      13.59787507  F        0
H        6.01931354       8.91222751      13.59787507  F        0
H        6.45001595      11.67065412      10.93294989  F        0
H        4.03182275      12.92715973       8.82439874  F        0
H        3.12887898       0.94105847       0.49683427  F        0
H        3.12887899       8.92429365       0.49683426  F        0
H        8.21123678      12.90527891       8.50458507  F        0
H       12.40451339       8.25291401       5.80455660  F        0
H       12.40451338       1.61243810       5.80455660  F        0
H        1.92726146       1.06764952      10.59110356  F        0
H        1.92726146       8.79770260      10.59110356  F        0
H        5.53537813      12.95496052       1.09262639  F        0
H        2.04924741       6.48050321       2.89306910  F        0
H        2.04924740       3.38484890       2.89306909  F        0
H       13.35632229       2.80449888       2.51220488  F        0
H       13.35632228       7.06085325       2.51220488  F        0
H        6.58577873       0.71565665      -1.35751145  F        0
H        6.58577874       9.14969547      -1.35751146  F        0
H       10.94686465      -1.43592210       4.04088346  F        0
H        1.81269882      -1.43617684       3.09859994  F        0
H        6.45001594      -1.80559776      10.93294989  F        0
H        4.03182274      -3.06210338       8.82439872  F        0
H        8.21123678      -3.04022255       8.50458507  F        0
H        5.53537813      -3.08990416       1.09262638  F        0
Fe       7.76021273       5.04771728       4.56434508  T        1
