147
Lattice="24.397 0.0 0.0 0.0 24.397 0.0 0.0 0.0 24.397" Properties=species:S:1:pos:R:3:move_mask:L:1:tags:I:1 i=41 E=-6943.8331748197 regions="_JSON [\"Active\"]" n_terminators=24 energy=-1044.592878284684 pbc="F F F"
O        9.43869643      14.64270892      -0.10050783  T        0
O       12.33472090       9.49520793       2.52122571  T        0
O       14.83448733      21.08389900       6.10857151  T        0
O       12.18835766      15.66685452       8.86858639  T        0
O        9.43734141      18.45651589       3.40344347  T        0
O       15.94802035       9.60880144       6.08508006  T        0
O       18.31662607      14.80300991       8.72839590  T        0
O       20.91486676      12.18022290       3.58444166  T        0
O       21.04369263      15.65128760      -0.03560900  T        0
O       18.27348024      21.09595438       2.61252391  T        0
O       14.59140284       9.47146466       0.05607473  T        0
O        9.55400923      12.24114771       2.59796982  T        0
O       20.93054531      14.82793158       6.12801099  T        0
O       15.76979130      12.24204267       8.78026779  T        0
O       18.31295219       9.66455115       3.86651273  T        0
O        9.46058424      15.62552872       6.18770486  T        0
O       14.86982421      18.38165207       8.85898062  T        0
O       12.20664109      21.08834690       3.47358145  T        0
O       15.63076778      21.03687933      -0.07294930  T        0
O       21.06672586      18.32176610       2.63782157  T        0
O       11.48640330      13.96940897       1.88064900  T        0
O       14.20118981      11.45442409       2.15279661  T        0
O       17.49412594      10.26789587       8.17509882  T        0
O       20.26636528      13.06986953       8.05927078  T        0
O       20.42179864      10.21602322       5.39950541  T        0
O       19.23523576      16.52388291       1.77757548  T        0
O       16.48654672      19.25357129       1.77038479  T        0
O       10.30146893      10.23817421       0.98500560  T        0
O       11.18907249      16.62682500       4.38262163  T        0
O       14.00924918      19.25944096       4.29314701  T        0
O       13.99323301      16.56354192       7.06411847  T        0
O       19.16991013      14.10208122       4.26351899  T        0
O       16.32973454      11.46574560       4.18081005  T        0
O       16.45381208      14.09158711       6.95580992  T        0
O       12.02569917      11.96977499       3.57219140  T        0
O       18.45313033       8.67951213       6.31547524  T        0
O       18.30195436      12.28917738       9.65409285  T        0
O       21.85761222      12.31297277       6.08431557  T        0
O       18.45202466      18.49574815       3.34617974  T        0
O       12.08507380       8.60475817      -0.01879154  T        0
O        8.72505868      12.06525052       0.05178399  T        0
O       12.07986855      14.96367464       6.24169438  T        0
O       12.05342306      18.47914691       2.72581288  T        0
O       15.60292789      18.49372840       6.25008317  T        0
O       18.40581163      15.71363429       6.21120161  T        0
O       18.39250879      12.12848578       2.74109406  T        0
O       14.88005467      12.09336492       6.26965897  T        0
O       10.35648096      16.63067388       1.82027861  T        0
O       13.90914688      10.34808716       4.52042924  T        0
O       20.00530374       7.75224923       4.31302754  T        0
O       16.41864706       7.78862840       7.86503648  T        0
O       20.06066485      14.12469427      10.55519252  T        0
O       22.85547429      10.53963682       4.30016134  T        0
O       20.04535744      13.95980074       1.73436440  T        0
O       16.55205420      20.08817187       4.33753838  T        0
O       16.72123953      10.27525927       1.82345203  T        0
O       10.48580386      14.00717992       4.36632605  T        0
O       22.76054935      14.12963934       7.86128574  T        0
O       16.50354012      10.54557495      10.67000867  T        0
O       13.93452415      20.07625256       1.73001025  T        0
O       20.05829382      16.61724142       4.33917433  T        0
O        7.78036449      10.39503362       1.96394878  T        0
O       16.54589285      16.60952208       7.87941642  T        0
O       13.94258208      13.99271269       7.87588062  T        0
O       10.45127214       7.71264767       1.93378333  T        0
Al      10.71112846      15.27157812       0.85342516  T        0
Si      13.07826259      10.79131034       3.16356498  T        0
Si      17.09799894       9.08403576       7.13080403  T        0
Si      19.24727742      13.56153214       9.24790946  T        0
Si      21.51259778      11.31170840       4.84523698  T        0
Si      19.68501031      15.27610806       0.82043826  T        0
Si      17.44075066      19.72972372       3.01379993  T        0
Al      15.32989148      10.76140397       0.89058977  T        0
Si      10.88102080      13.04679353       3.11035721  T        0
Si      21.45244690      13.57476297       7.04280587  T        0
Si      17.02301795      11.33308526       9.32730793  T        0
Si      19.32826884       9.07688535       4.99316934  T        0
Si      15.23604726      19.70243012       0.81494912  T        0
Si      19.69178697      17.49779735       3.01431299  T        0
Si       9.07544440      11.23065599       1.39391579  T        0
Si      10.80754099      15.32329717       5.28392383  T        0
Si      13.03849930      19.72340512       3.05920742  T        0
Si      15.24386260      17.52261765       7.50437627  T        0
Si      19.65091239      15.32462214       5.24093611  T        0
Si      17.49730934      10.81516154       3.09471646  T        0
Si      15.25965089      13.11681027       7.49684622  T        0
Si      11.29058201       8.99735672       1.34311501  T        0
Si      15.24228197      10.83538151       5.31404091  T        0
Si      19.66367241      13.10351568       3.07196107  T        0
Si      17.43453860      15.31360888       7.45125523  T        0
Si      15.24194400      19.73303949       5.25227853  T        0
Si      10.76320088      17.53514202       3.07042302  T        0
Si      13.04175328      15.31100879       7.50579282  T        0
O       14.68138607      12.18101795      -2.56390186  T        0
O       15.64130340      18.34980402      -2.77900340  T        0
O       12.14910568      14.68698345      -2.60221715  T        0
O       18.31177029      15.66371806      -2.78315236  T        0
O       14.08911388      14.09782178      -0.79770737  T        0
O       16.49560534      16.52593667      -0.96838619  T        0
O       13.00082732      10.10492584      -2.01406807  T        0
O       10.06862704      12.98566880      -2.07842557  T        0
O       12.22843382      15.58575670      -0.05119677  T        0
O       15.71102851      12.16144779      -0.06819014  T        0
O       18.43646831      14.92671520      -0.17155819  T        0
O       14.87398163      18.44336379      -0.16949781  T        0
O       12.17506321      12.16106522      -3.45020696  T        0
O       16.54088464      13.98893120      -1.83679205  T        0
O       14.03378290      10.49450290      -4.47943022  T        0
O        7.45961946      13.58966512      -1.58317758  T        0
O       13.95895476      16.56691949      -1.86386124  T        0
O       10.52048277      14.00923659      -4.52584889  T        0
O       13.95485426       7.58586282      -1.63930004  T        0
Si      15.30018648      13.05150450      -1.32478302  T        0
Si      15.25492058      17.48653898      -1.43092544  T        0
Si      13.07383419      15.27866575      -1.41201839  T        0
Si      17.45626623      15.27991113      -1.42794476  T        0
Si      13.42489930       8.95662211      -0.90611582  T        0
Si      11.21159110      13.43960321      -3.14761631  T        0
Si       8.94592853      13.35460530      -0.92427280  T        0
Si      13.46891440      11.21668040      -3.11404456  T        0
H       14.01033133      21.15748981       6.62630180  F        0
H       11.67124922      16.48560174       8.95913012  F        0
H        9.33839640      18.82463975       4.28720704  F        0
H       21.15749781      16.48550533      -0.52720743  F        0
H       18.82463422      21.15752504       1.81198193  F        0
H        9.33840600      16.48559124       6.62628668  F        0
H       14.01032599      18.82464129       8.95915608  F        0
H       11.67126808      21.15750273       4.28721909  F        0
H       16.48550522      21.15749796      -0.52720744  F        0
H       21.15752488      18.82463433       1.81198193  F        0
H       20.83116242       7.34351907       4.61081863  F        0
H       16.80917625       7.34350499       8.63275504  F        0
H       20.83112794      13.68672549      10.95404502  F        0
H       23.15243040       9.66481607       4.61081458  F        0
H       23.15239535      13.68673615       8.63276462  F        0
H       16.80915547       9.66477682      10.95402362  F        0
H        7.34352333       9.66479174       1.48837704  F        0
H        9.66479163       7.34352337       1.48837704  F        0
H       16.48557283      18.82464187      -2.86023677  F        0
H       18.82464171      16.48557294      -2.86023676  F        0
H       13.68673308       9.66480596      -4.85513656  F        0
H        7.34352146      13.68671965      -2.53387758  F        0
H        9.66480591      13.68673318      -4.85513656  F        0
H       13.68671953       7.34352150      -2.53387758  F        0
Fe      15.40371383      12.96139549       3.11493866  T        0
Fe      13.44706775      14.49167329       1.31849654  T        1
O       14.82056019      14.54774312       2.53666466  T        2
