148
Lattice="24.397 0.0 0.0 0.0 24.397 0.0 0.0 0.0 24.397" Properties=species:S:1:pos:R:3:move_mask:L:1:tags:I:1 i=41 E=-6943.8331748197 regions="_JSON [\"Active\"]" n_terminators=24 energy=-1049.540388038693 pbc="F F F"
O        9.60731022      14.62119042      -0.05894520  T        0
O       12.30169112       9.52805518       2.50544450  T        0
O       14.83221500      20.93592506       6.13630241  T        0
O       12.20313952      15.76520241       8.73078390  T        0
O        9.78914908      18.52214043       3.60191785  T        0
O       15.61110252       9.45660696       6.21801942  T        0
O       18.35414358      14.85626382       8.86367756  T        0
O       21.10285155      12.24765344       3.49931028  T        0
O       21.03043951      15.63778681      -0.06046638  T        0
O       18.24555475      21.09595187       2.58952714  T        0
O       14.59498402       9.67422172      -0.06333059  T        0
O        9.53523145      12.32097883       2.46704688  T        0
O       21.06949958      14.84843492       6.13266342  T        0
O       15.66364201      12.18310408       8.87672199  T        0
O       18.36576689       9.42308176       3.44257800  T        0
O        9.59114686      15.73060064       6.13765744  T        0
O       14.76168752      18.30996725       8.71790734  T        0
O       12.08563240      20.82530436       3.57802109  T        0
O       15.61300506      20.91962058      -0.16016164  T        0
O       21.10154738      18.29329375       2.62681630  T        0
O       11.66249796      13.84053765       1.81167173  T        0
O       13.89593920      11.62465135       1.97815911  T        0
O       13.06023371      20.29069965       8.06652505  T        0
O       10.20205844      17.46251071       8.11226089  T        0
O       10.17829417      20.40355374       5.44001429  T        0
O       19.25789825      16.50108635       1.79538768  T        0
O       16.49801571      19.21739034       1.78377531  T        0
O       10.27326251      10.26476341       0.92062593  T        0
O       11.43932514      16.59621303       4.44297799  T        0
O       14.10176845      19.18641220       4.26670620  T        0
O       14.06740815      16.44247847       6.94027049  T        0
O       19.25908120      14.04800719       4.29011770  T        0
O       16.60749661      11.22339255       4.44099505  T        0
O       16.55092281      13.97175921       7.05404340  T        0
O       11.90383216      11.92271193       3.66598171  T        0
O       12.31912927      21.83361540       6.04866605  T        0
O       12.22329974      18.30205423       9.59029557  T        0
O        8.73510016      18.26561561       6.06738048  T        0
O       18.50627018      18.48402242       3.33679486  T        0
O       12.11886028       8.66621314      -0.04612920  T        0
O        8.67806826      12.10353936      -0.06944878  T        0
O       12.10466534      14.78921507       6.24380434  T        0
O       12.28880794      18.30386922       2.58122004  T        0
O       15.70287546      18.39854785       6.21868493  T        0
O       18.47488810      15.60805649       6.26246278  T        0
O       18.49563204      12.04338936       2.79000760  T        0
O       14.90347505      12.06615249       6.26677141  T        0
O       10.49185437      16.52557933       1.94086529  T        0
O       14.00618022      10.42946667       4.37385698  T        0
O       14.10060156      22.78932383       7.83163597  T        0
O       10.51364462      16.47639743      10.61336270  T        0
O        7.76205084      20.02565022       4.26299855  T        0
O       10.52617288      22.82563004       4.29265923  T        0
O       20.03989513      13.93535618       1.72402313  T        0
O       16.60455126      20.05888462       4.33810769  T        0
O       16.57147062      10.46167111       1.86732627  T        0
O       10.48401482      14.08518376       4.23598725  T        0
O        7.69463678      16.47124971       7.79053857  T        0
O       14.06744054      20.02216557      10.57102593  T        0
O       13.96366058      20.13529842       1.76225495  T        0
O       20.08031462      16.58590962       4.37080067  T        0
O        7.74365740      10.46685296       1.87433223  T        0
O       16.57632751      16.52812141       7.88360677  T        0
O       13.99472921      13.95219155       7.90716442  T        0
O       10.46263264       7.73980296       1.88549213  T        0
Al      10.88880550      15.19912097       0.90211678  T        0
Si      13.02014721      10.84837355       3.14817680  T        0
Si      13.56635839      21.45802020       7.03912871  T        0
Si      11.27919083      17.00858174       9.26193424  T        0
Si       9.10324683      19.30404710       4.87005227  T        0
Si      19.69260966      15.25553307       0.82702241  T        0
Si      17.48833012      19.69970924       3.01831440  T        0
Al      15.22103937      10.92056066       0.92864076  T        0
Si      10.88782558      13.03925937       3.04469530  T        0
Si       9.05932186      16.98987575       7.04220208  T        0
Si      13.51686654      19.23597497       9.24006934  T        0
Si      11.26772693      21.47754771       4.86070032  T        0
Si      15.25420326      19.69366542       0.85535986  T        0
Si      19.74041036      17.45634590       3.03319265  T        0
Si       9.04820663      11.27903561       1.28795667  T        0
Si      10.90183036      15.27830367       5.26719695  T        0
Si      13.11103874      19.67504751       3.08437550  T        0
Si      15.27890484      17.41436652       7.45129974  T        0
Si      19.72318707      15.26215114       5.27309120  T        0
Si      17.50030789      10.79007353       3.12062921  T        0
Si      15.28969037      13.03494909       7.51764691  T        0
Si      11.28506365       9.04020171       1.30352299  T        0
Si      15.29657630      10.79994683       5.31461728  T        0
Si      19.72432123      13.05466271       3.07753445  T        0
Si      17.49544440      15.22940281       7.50758075  T        0
Si      15.32523027      19.64959875       5.26298356  T        0
Si      10.92723638      17.45451343       3.15569741  T        0
Si      13.09350451      15.23544953       7.46375691  T        0
O       14.78027802      12.11339575      -2.53891631  T        0
O       15.60677464      18.69353790      -2.46452543  T        0
O       12.00009665      14.90779714      -2.60129483  T        0
O       18.24576514      15.70757221      -2.79403352  T        0
O       13.89428873      14.10036045      -0.95939359  T        0
O       16.52767758      16.62898959      -0.96069847  T        0
O       12.91558044      10.17978903      -2.08192902  T        0
O       10.13461929      12.98777713      -2.10717539  T        0
O       12.24250398      15.90334979      -0.06870667  T        0
O       15.46471698      12.46093084       0.08879360  T        0
O       18.42383386      14.95561182      -0.17161326  T        0
O       14.71734588      18.32160354       0.03087660  T        0
O       12.32236057      12.37842998      -3.45868770  T        0
O       16.45934967      14.08413676      -1.80367565  T        0
O       13.97665676      10.54212368      -4.53587722  T        0
O        7.65384853      14.00044202      -1.67417293  T        0
O       13.99250399      16.63013147      -1.88872733  T        0
O       10.52220069      14.04100547      -4.56831385  T        0
O       14.02242518       7.72572560      -1.71074739  T        0
Si      15.20335583      13.14418153      -1.34957621  T        0
Si      15.24810598      17.53797632      -1.36217162  T        0
Si      13.00617498      15.39979892      -1.43180958  T        0
Si      17.44091117      15.32874417      -1.40655731  T        0
Si      13.42393418       9.06575714      -0.96679473  T        0
Si      11.23157830      13.55244950      -3.17228622  T        0
Si       9.02491581      13.43447288      -0.96650225  T        0
Si      13.48661555      11.27486548      -3.14696998  T        0
H       16.48559112       9.33840607       6.62628668  F        0
H       18.82464116      14.01032609       8.95915608  F        0
H       21.15750258      11.67126816       4.28721909  F        0
H       21.15749781      16.48550533      -0.52720743  F        0
H       18.82463422      21.15752504       1.81198193  F        0
H       21.15748967      14.01033142       6.62630180  F        0
H       16.48560162      11.67124930       8.95913012  F        0
H       18.82463962       9.33839646       4.28720704  F        0
H       16.48550522      21.15749796      -0.52720744  F        0
H       21.15752488      18.82463433       1.81198193  F        0
H       13.68673605      23.15239550       8.63276462  F        0
H        9.66477675      16.80915558      10.95402362  F        0
H        7.34351903      20.83116256       4.61081863  F        0
H        9.66481601      23.15243056       4.61081458  F        0
H        7.34350493      16.80917637       8.63275504  F        0
H       13.68672539      20.83112809      10.95404502  F        0
H        7.34352333       9.66479174       1.48837704  F        0
H        9.66479163       7.34352337       1.48837704  F        0
H       16.48557283      18.82464187      -2.86023677  F        0
H       18.82464171      16.48557294      -2.86023676  F        0
H       13.68673308       9.66480596      -4.85513656  F        0
H        7.34352146      13.68671965      -2.53387758  F        0
H        9.66480591      13.68673318      -4.85513656  F        0
H       13.68671953       7.34352150      -2.53387758  F        0
Fe      13.87577813      13.62437335       1.42455152  T        0
Fe      13.48832537      16.89321963       1.38613620  T        1
O       14.00681089      15.36309633       2.61928162  T        2
O       14.92611518      15.44435599       1.45079100  T        3
