142
Lattice="24.397 0.0 0.0 0.0 24.397 0.0 0.0 0.0 24.397" Properties=species:S:1:pos:R:3:move_mask:L:1:tags:I:1 i=41 E=-6943.8331748197 regions="_JSON [\"Active\"]" n_terminators=34 energy=-950.8040941265908 pbc="F F F"
O       21.62377117       2.59365700       0.12247669  T        0
O       11.91182696       9.62090511       2.71713082  T        0
O       21.83622038       6.21248146       3.51345278  T        0
O       15.66876982       9.73193919       6.23845067  T        0
O       20.85107848      12.40382576       3.68627770  T        0
O       15.54990706       6.28420577       9.72525874  T        0
O       14.83201057       9.83098383      -0.32757254  T        0
O       21.89605371      -0.16093884       2.61670937  T        0
O       18.22167039       9.69806115       3.46505319  T        0
O       21.96588649       3.45144013       6.35877249  T        0
O       18.43348847       3.30854972       9.68326869  T        0
O       23.72791487       1.64782972       1.96418949  T        0
O       13.77494904      11.24278261       1.72222754  T        0
O       22.65815726       5.51648390       7.96981586  T        0
O       22.72138408       8.16663349       5.47467947  T        0
O       17.66259995      10.50779766       7.89904677  T        0
O       20.19995961      10.34453811       5.20220792  T        0
O       23.47655450       4.23736963       4.31536108  T        0
O       18.85983772      14.17822645       4.23830966  T        0
O       16.40229894      11.45503081       4.32116263  T        0
O       17.64520632       7.86569164      10.55099004  T        0
O       19.98206525       5.36169727      10.66214851  T        0
O       12.11935038      12.19702002       3.65479143  T        0
O       20.87657938       5.93594746       6.15119649  T        0
O       18.17210923       8.81242340       5.99630910  T        0
O       21.91586545      12.20247037       6.18978107  T        0
O       20.91127361       0.01943472       0.10093348  T        0
O       24.49429427       2.47211785       6.10393529  T        0
O       24.36290141       6.15204879       2.68367152  T        0
O       18.34572093      12.22012646       2.63333922  T        0
O       14.58889168      12.22006904       6.18955740  T        0
O       18.11195682       5.88664527       8.91913936  T        0
O       22.57907622       4.35160579       1.78735687  T        0
O       13.92169341      10.47325747       4.31653331  T        0
O       19.96331392       7.86148649       4.26028771  T        0
O       16.63979301       7.97982838       8.03319311  T        0
O       22.74366018      10.57320058       4.33761605  T        0
O       20.19034399      14.04782399       1.80840884  T        0
O       16.37295903      10.59070072       1.77694612  T        0
O       22.65912819       1.68317044       4.42642380  T        0
O       20.22186368       4.32803221       8.15957344  T        0
Al      23.24328450       2.92225952       0.91670086  T        0
Si      12.92094772      10.88473314       3.07931351  T        0
Al      21.45557658       7.10003174       5.03225020  T        0
Si      17.00952889       9.24349497       7.05760673  T        0
Si      21.42076839      11.39310581       4.84865637  T        0
Si      15.11112654      11.00207554       0.80754050  T        0
Si      23.16584655       0.73586099       3.17280512  T        0
Si      19.12761670       9.20956868       4.73771435  T        0
Si      21.41570950       4.79689367       7.14066279  T        0
Si      23.67954909       9.30693706       4.84492157  T        0
Si      23.14085569       2.97036051       5.31470201  T        0
Si      17.32332095      11.00995587       3.04028514  T        0
Si      19.19396246       4.73547149       9.35343171  T        0
Si      15.15385221      10.97307113       5.28022621  T        0
Si      19.56151926      13.22351374       3.08506936  T        0
Si      23.08100522       5.22877496       3.08223415  T        0
Si      16.98476902       7.00003021       9.31068160  T        0
O       24.52344778       8.70090319       3.55377629  T        0
O       28.01335711       8.84647200       0.17287779  T        0
O       28.88289485       6.76526125       1.74250276  T        0
O       26.20597804       6.73028024       4.39861328  T        0
O       24.74848127       9.91033244       5.95036608  T        0
O       26.35365091       7.73707325       1.86775703  T        0
Si      27.62246901       7.40327251       0.88548918  T        0
Si      25.36849482       7.36335099       3.12074815  T        0
O       27.99878724       5.94117475      -2.80416351  T        0
O       24.65087918       2.38113846      -2.70410844  T        0
O       26.23808969       1.72679063      -0.61400563  T        0
O       28.93325330       4.39983517      -0.72679074  T        0
O       27.22450830       6.28237368      -0.23185748  T        0
O       24.31092920      -0.18717082      -3.50261069  T        0
O       26.43403467       4.16636119      -1.78514665  T        0
Si      27.63720545       5.18838925      -1.37814305  T        0
Si      25.40755546       2.95998738      -1.34772083  T        0
O       18.08044064       2.45329728      -3.56952563  T        0
O       20.84236640       2.39707847      -6.26450449  T        0
O       14.84986619       6.46298728      -3.71820078  T        0
O       20.03551266       0.78750690      -4.31402844  T        0
O       22.59153768       0.95192228      -1.74921293  T        0
O       13.61987347       4.50178736      -4.96964503  T        0
O       18.87197283       1.86768134      -8.07247082  T        0
O       16.37285612       1.77845322      -5.56224680  T        0
O       24.35860390       3.47143967      -0.25847708  T        0
O       15.57241715      12.41977354       0.11759596  T        0
O       18.23442665      -0.02711169      -2.44469219  T        0
O       21.88606179      -0.11461622      -6.07985158  T        0
O       15.51431221       5.97347673      -6.30370158  T        0
O       18.35362027       3.44129782      -6.05983309  T        0
O       20.00303503       1.71614325      -1.79821199  T        0
O       22.58271312       1.64898107      -4.30749062  T        0
O       20.15789014       4.30955309      -7.91027973  T        0
O       16.30012482       4.25301091      -4.49209026  T        0
Si      19.07631547       1.24186129      -3.06301060  T        0
Si      21.32680327       1.19159500      -5.25385218  T        0
Si      23.55822661       1.20832131      -3.05704802  T        0
Si      15.07178165       5.29066232      -4.86804107  T        0
Si      19.55736951       3.01048497      -7.09219425  T        0
Si      21.27139493       1.29908322      -0.85160210  T        0
Si      17.28157401       2.99881339      -4.90639923  T        0
O       22.54559061      -1.92579554       0.61267874  T        0
O       24.30782272      -0.27508496       3.80845754  T        0
O       20.09700419      -1.85575417       1.91064839  T        0
Si      21.36756731      -0.99363891       1.31353530  T        0
H       11.67127885       9.33842242       1.81195952  F        0
H       15.43757911       5.57209275      10.38640946  F        0
H       14.01041460       9.33842077      -0.52721165  F        0
H       17.77043311       3.23924387      10.38640412  F        0
H       23.12591797       5.02704618       8.65412107  F        0
H       17.22544067      10.92750153       8.65411313  F        0
H       19.36965547      14.75328399       4.82834093  F        0
H       17.22544070       8.65411150      10.92750362  F        0
H       20.85245744       5.02708867      10.92752556  F        0
H       11.39908935      12.70105073       3.24464026  F        0
H       21.54216027      12.99764967       6.60187561  F        0
H       24.89951425       2.85451703       6.89840128  F        0
H       15.05290853      12.70105704       6.89848521  F        0
H       19.78591980      14.73191782       1.24430354  F        0
H       28.68412771       8.95914275      -0.52719976  F        0
H       29.22534432       7.17131743       2.55494170  F        0
H       26.95194123       7.17131746       4.82834527  F        0
H       25.19630608       9.34383456       6.60185911  F        0
H       28.68420928       6.62630035      -2.86021198  F        0
H       26.95192867       1.27083937      -1.07240246  F        0
H       29.22533941       3.54426653      -1.07238230  F        0
H       25.19622735      -0.50276655      -3.24494277  F        0
H       14.01033133       6.62630079      -3.23950641  F        0
H       13.46920992       3.54427607      -5.02735139  F        0
H       19.36968740       1.27081557      -8.65438303  F        0
H       15.74261410       1.27081536      -5.02730892  F        0
H       15.44299305      12.70103244      -0.79954860  F        0
H       17.49833355      -0.50278089      -2.85477948  F        0
H       21.54221652      -0.50278066      -6.89866328  F        0
H       15.44301081       6.89846591      -6.60212382  F        0
H       19.78593015       4.85484827      -8.63303166  F        0
H       23.12589418      -2.55519498       1.07214050  F        0
H       24.89950013      -0.79949361       3.24468082  F        0
H       19.54187317      -2.53384464       1.48839915  F        0
Fe      20.86207765       4.46202405       0.55079897  T        0
Fe      19.90668114       6.46445285       2.79013298  T        1
O       19.54719197       5.15173616       1.57558770  T        2
O       21.12212609       5.46276215      -0.73764042  T        3
