133
Lattice="24.397 0.0 0.0 0.0 24.397 0.0 0.0 0.0 24.397" Properties=species:S:1:pos:R:3:move_mask:L:1:tags:I:1 i=41 E=-6943.8331748197 regions="_JSON [\"Active\"]" n_terminators=24 energy=-928.821607950685 pbc="F F F"
O        9.57681159      14.69872932      -0.27183093  T        0
O       12.30890999       9.51638224       2.55513970  T        0
O       14.86490695      20.97660230       6.07965612  T        0
O       12.36136000      15.85756674       8.73179979  T        0
O        9.79520867      18.47022262       3.66696678  T        0
O       15.76375846       9.42244206       5.98755381  T        0
O       18.64847002      14.89796716       8.59654978  T        0
O       18.57652077      20.83556242       2.69786397  T        0
O       14.85627253       9.55310439      -0.03143933  T        0
O        9.64867836      12.05413920       2.70270457  T        0
O       15.75939567      12.31525454       8.89166172  T        0
O        9.60049614      15.76275949       6.09871738  T        0
O       14.75092765      18.19827862       8.76282717  T        0
O       12.13124075      20.93213872       3.62258674  T        0
O       15.75543330      20.51978955      -0.51371767  T        0
O       11.39357775      13.88704213       1.81386147  T        0
O       14.15060449      11.33706441       1.82462632  T        0
O       13.15056743      20.19370902       7.99230175  T        0
O       10.29974372      17.44305285       8.06452117  T        0
O       10.18281110      20.45797704       5.42735897  T        0
O       16.74906980      19.20271644       1.61791221  T        0
O       10.29434528      10.15284341       0.90025925  T        0
O       11.48524739      16.52341304       4.37675060  T        0
O       14.05213539      19.00234400       4.46526072  T        0
O       14.09576241      16.54912292       6.73326891  T        0
O       16.73211452      11.46780364       4.41872469  T        0
O       16.70309572      13.94707447       6.96689332  T        0
O       12.18747495      12.01812014       3.52468219  T        0
O       12.31767840      21.85687855       6.13177572  T        0
O       12.22658998      18.34349167       9.64306699  T        0
O        8.75846318      18.31533986       6.12039936  T        0
O       18.32619635      18.25788774       3.60790996  T        0
O       12.31242681       8.66958535       0.03030446  T        0
O        8.79203540      12.15308196       0.15805762  T        0
O       12.14623280      14.87578793       6.24764068  T        0
O       12.28118846      18.17822568       2.56810513  T        0
O       15.83779379      18.48191884       6.30360915  T        0
O       18.37055364      15.87608097       6.07531641  T        0
O       15.02766136      12.02173604       6.28950876  T        0
O       10.34320022      16.52050939       1.88986438  T        0
O       14.15301738      10.44777812       4.29412853  T        0
O       14.17280427      22.70606115       7.91727098  T        0
O       10.50740039      16.47609592      10.57878143  T        0
O        7.76584057      20.01768439       4.28215311  T        0
O       10.59046165      22.93908752       4.41856507  T        0
O       16.53140705      20.01673446       4.20560453  T        0
O       16.70368724      10.31735047       1.69601149  T        0
O       10.53918107      13.94978308       4.35123246  T        0
O        7.77231434      16.45385515       7.83345179  T        0
O       14.10822017      20.05496374      10.53834845  T        0
O       14.20633255      20.01695795       1.70634810  T        0
O        7.80936774      10.37314593       1.96353373  T        0
O       16.56618835      16.44901186       7.86872350  T        0
O       14.15286605      14.07106124       7.80020857  T        0
O       10.55688148       7.62058922       1.78382291  T        0
Al      10.80214454      15.19105636       0.83873890  T        0
Si      13.17673359      10.82291459       3.04008907  T        0
Si      13.60475272      21.44800028       7.03174721  T        0
Si      11.32570573      17.03437482       9.26782455  T        0
Si       9.12867326      19.33427812       4.89143459  T        0
Si      17.55937943      19.57053659       3.00190974  T        0
Si      15.36691250      10.82732903       0.85991660  T        0
Si      10.95183504      12.98640370       3.06076588  T        0
Si       9.09494092      17.01318960       7.04259246  T        0
Si      13.54794432      19.22257530       9.24237581  T        0
Si      11.31138287      21.53341716       4.87353660  T        0
Si      15.39602216      19.52590082       0.75166384  T        0
Si       9.13007817      11.18540412       1.41501821  T        0
Si      10.89076575      15.22745715       5.26012334  T        0
Al      13.14818361      19.68074518       3.04025203  T        0
Si      15.35526784      17.44184483       7.45432682  T        0
Si      15.41598774      13.06905472       7.46796465  T        0
Si      11.35524244       8.98659182       1.31976919  T        0
Si      15.42061228      10.83661589       5.22788819  T        0
Si      17.59803405      15.25521186       7.37954707  T        0
Si      15.34895772      19.65105909       5.26163127  T        0
Si      10.88736426      17.43195805       3.06938302  T        0
Si      13.17199740      15.30510923       7.42869888  T        0
O       14.81570155      12.18156042      -2.63813809  T        0
O       15.65716450      18.33095216      -2.72373464  T        0
O       12.07726324      14.67206049      -2.45313580  T        0
O       18.71798212      15.60038041      -2.46165269  T        0
O       14.13856992      14.02106941      -0.84008386  T        0
O       16.65453834      16.50153841      -1.01136967  T        0
O       13.10056198      10.21881874      -1.96165570  T        0
O       10.09445859      12.84078721      -2.08384318  T        0
O       12.33325480      15.80552164      -0.00948387  T        0
O       15.77833228      12.06140249      -0.12853838  T        0
O       18.32459804      14.66171443       0.06271456  T        0
O       14.85923592      18.13497913      -0.03627318  T        0
O       12.26768922      12.22174884      -3.47531367  T        0
O       16.64436548      13.95451125      -1.79552080  T        0
O       14.06411049      10.48451399      -4.49016672  T        0
O        7.50910839      13.52180592      -1.59545917  T        0
O       14.06258634      16.44433700      -1.88774716  T        0
O       10.50194603      14.01311946      -4.47209198  T        0
O       14.11550341       7.71807801      -1.74548070  T        0
Si      15.35457103      13.04063690      -1.35558792  T        0
Si      15.34248569      17.35710380      -1.44834712  T        0
Si      13.12978143      15.20168750      -1.33697885  T        0
Si      17.60368060      15.19155878      -1.31369022  T        0
Si      13.58124226       9.03954133      -0.92730164  T        0
Si      11.21778735      13.41918475      -3.11174263  T        0
Si       9.00925285      13.34263250      -0.93849205  T        0
Si      13.54823899      11.26335437      -3.13787008  T        0
H       16.48559112       9.33840607       6.62628668  F        0
H       18.82464116      14.01032609       8.95915608  F        0
H       18.82463422      21.15752504       1.81198193  F        0
H       16.48560162      11.67124930       8.95913012  F        0
H       16.48550522      21.15749796      -0.52720744  F        0
H       17.02668803      11.12627122       3.54428909  F        0
H       19.09683476      17.79487503       3.24462109  F        0
H       19.09684364      15.44301376       5.59651532  F        0
H       13.68673605      23.15239550       8.63276462  F        0
H        9.66477675      16.80915558      10.95402362  F        0
H        7.34351903      20.83116256       4.61081863  F        0
H        9.66481601      23.15243056       4.61081458  F        0
H       17.05321204      10.71001402       2.53361564  F        0
H        7.34350493      16.80917637       8.63275504  F        0
H       13.68672539      20.83112809      10.95404502  F        0
H        7.34352333       9.66479174       1.48837704  F        0
H        9.66479163       7.34352337       1.48837704  F        0
H       16.48557283      18.82464187      -2.86023677  F        0
H       18.82464171      16.48557294      -2.86023676  F        0
H       19.09678362      15.05286173       0.50248505  F        0
H       13.68673308       9.66480596      -4.85513656  F        0
H        7.34352146      13.68671965      -2.53387758  F        0
H        9.66480591      13.68673318      -4.85513656  F        0
H       13.68671953       7.34352150      -2.53387758  F        0
Fe      13.50917309      16.80592488       1.33875241  T        0
Fe      13.68565090      16.93632427       4.49194350  T        1
O       14.92820410      16.68993807       2.76289744  T        2
O       13.96528098      15.59539620       3.02470434  T        3
