139
Lattice="19.123 0.0 0.0 0.0 14.277 0.0 0.0 0.0 7.5465" Properties=species:S:1:pos:R:3:move_mask:L:1:tags:I:1 i=128 E=-2603.9155142701 regions="_JSON [\"Active\"]" n_terminators=34 energy=-932.9019856576862 pbc="F F F"
O        6.22425756       1.15210264       1.65427199  T        0
O       15.55079469       8.44843956       5.75272627  T        0
O       12.96980761       1.13158873       1.53848065  T        0
O        3.46583707       8.43722835       5.83585671  T        0
O        6.08619277      13.11796913       1.52439766  T        0
O       15.56235176       5.76979911       5.77409453  T        0
O       13.05182950      13.16890273       1.45278021  T        0
O        3.47155256       5.75603204       5.90176054  T        0
O       13.11082332      13.15967453       6.11034086  T        0
O        3.42784001       5.75118284       1.62223118  T        0
O        6.25009172      13.00862274       5.48720113  T        0
O       15.60345374       5.78908448       1.77452630  T        0
O       12.94338503       1.12162657       5.96967769  T        0
O        3.47177119       8.43538821       1.71323780  T        0
O        6.22844435       1.14870524       5.89668007  T        0
O       15.54187576       8.48102708       1.81624377  T        0
O        7.27960078       3.52775674       2.45023023  T        0
O       17.22363322      10.49558081       6.26866137  T        0
O       11.95403372       3.49755999       2.45368584  T        0
O        1.91163024      10.61942517       6.18301686  T        0
O        7.09739543      10.73512631       2.42819005  T        0
O       17.16654493       3.62112618       6.17348003  T        0
O       12.00953032      10.72363476       2.17472083  T        0
O        2.00581888       3.47698777       6.08095653  T        0
O       12.09563743      10.83162390       5.01570064  T        0
O        2.01129319       3.44464446       1.45515436  T        0
O        7.15498389      10.60437180       5.11680346  T        0
O       17.17482859       3.61759244       1.39317697  T        0
O       11.95444693       3.50907768       5.09506270  T        0
O        1.89231650      10.59029021       1.35697354  T        0
O        7.27669884       3.53158726       5.09443634  T        0
O       17.21344105      10.51218506       1.30264873  T        0
O        6.71224679       3.18499815      -0.04735819  T        0
O       16.23227209      10.11870886       3.80224975  T        0
O       12.47208590       3.24579682      -0.04455477  T        0
O        2.88102529      10.03722776       3.77291531  T        0
O        6.27986672      11.14181285      -0.13492154  T        0
O       16.10061654       4.08951491       3.77833518  T        0
O       13.07372550      11.20445433      -0.24901462  T        0
O        3.08900166       4.15874656       3.76737302  T        0
O        4.68301264       3.37035705       1.77542271  T        0
O       14.63268067      10.98343193       5.81063721  T        0
O       14.52723298       3.31910351       1.75680954  T        0
O        4.54186306      10.90751093       5.67402983  T        0
O        4.51392360      10.92703088       1.86346119  T        0
O       14.52836928       3.28563870       5.79237878  T        0
O       14.64450580      11.03935594       1.87595175  T        0
O        4.67841280       3.35424576       5.75873908  T        0
O       11.28614301       8.29506146       3.72747592  T        0
O        7.85993751       8.43297709       3.69905246  T        0
O       11.34075499       5.78948330       3.76694090  T        0
O        7.98256839       5.82032302       3.76867677  T        0
O        9.48841722      10.44315749       3.69347986  T        0
O        9.62524171       3.79215222       3.77283554  T        0
O       13.32678265       7.08107132       5.11998033  T        0
O        5.70806209       7.07163440       5.19106276  T        0
O        5.67473157       7.01026954       2.36128251  T        0
O       13.35278042       7.05704371       2.43186003  T        0
O       14.13406686       7.12526732      -0.07383741  T        0
O        5.01248425       7.14373239      -0.10473710  T        0
Si       6.17928807       2.79789115       1.46274521  T        0
Si      15.88704774      10.02989619       5.41195545  T        0
Si      13.01912114       2.78022597       1.43177722  T        0
Si       3.21442984       9.99262568       5.37949085  T        0
Si       5.99806990      11.47192247       1.44900207  T        0
Si      15.83253833       4.19711383       5.39466480  T        0
Si      13.15128821      11.51482925       1.35951979  T        0
Si       3.32006967       4.20484916       5.39269279  T        0
Si      13.08451380      11.49537894       6.09451430  T        0
Si       3.31173879       4.20029726       2.14081211  T        0
Si       6.05068354      11.44644990       5.99233380  T        0
Si      15.84279505       4.20988135       2.16163041  T        0
Si      13.01098895       2.76761725       6.10881442  T        0
Si       3.20500058       9.99013706       2.16318007  T        0
Si       6.17854307       2.79508944       6.08004990  T        0
Si      15.89420553      10.05220801       2.19352978  T        0
Al      11.22762184      10.20522488       3.64947576  T        0
Si       7.91325587      10.12444030       3.72770801  T        0
Si      11.22641796       4.09921109       3.77211987  T        0
Si       8.01327856       4.14247749       3.77197197  T        0
Si      14.67414803       7.11449029       6.08539712  T        0
Si       4.40294880       7.10720559       6.12236598  T        0
Si       4.38160332       7.08949002       1.41903429  T        0
Si      14.69875954       7.12600755       1.47314399  T        0
Si      12.43018363       7.08995702       3.76583166  T        0
Al       6.64528471       7.09120345       3.76184715  T        0
O        6.25611106      13.02258104       9.70983413  T        0
O        7.22274055      10.48599336       9.94649945  T        0
O        6.70351829       3.19019845       7.59083937  T        0
O       12.46088582       3.22038330       7.58795139  T        0
O        6.29829465      11.28499262       7.61436548  T        0
O       12.55751213      10.99202654       7.57965445  T        0
O        4.50659713      11.07974136       9.68485210  T        0
O       14.11625171       7.09287514       7.63527654  T        0
O        5.01716390       7.16456314       7.65441852  T        0
Si       6.06982507      11.43948782       9.24266393  T        0
O       12.92964453      13.00039630      -2.32831626  T        0
O        6.25649261      13.00210399      -2.17093519  T        0
O       11.81170836      10.55417862      -2.40150362  T        0
O        7.13548403      10.42325419      -2.47304336  T        0
O       14.56069373      10.91221585      -2.49331113  T        0
O        4.46601935      11.09958374      -2.17918055  T        0
Si      13.10643637      11.42044782      -1.86206675  T        0
Si       6.04034749      11.41391402      -1.74259961  T        0
H        5.61083456       0.52083913       2.07985367  F        0
H       13.50938118       0.51971906       2.07492992  F        0
H        5.61112307      13.75835362       2.07975607  F        0
H       13.50958039      13.75682243       2.07498241  F        0
H       13.51084140      13.75504172       5.44776650  F        0
H        5.62495998      13.75277707       5.44935724  F        0
H       13.50975252       0.52161770       5.44778410  F        0
H        5.62509051       0.52255101       5.44942550  F        0
H       17.28974254      11.12548174       7.01862795  F        0
H        1.83343022      11.12554006       7.01950242  F        0
H       17.28979000       3.14560285       7.02339196  F        0
H        1.81954193       3.15353441       6.98813474  F        0
H        1.83183800       3.14857954       0.53722786  F        0
H       17.29134854       3.14797220       0.53999843  F        0
H        1.83154049      11.12909684       0.54034962  F        0
H       17.29120144      11.12876736       0.54010345  F        0
H        6.35952436       2.97904956      -0.93427223  F        0
H       12.76076393       2.97683097      -0.93375646  F        0
H       14.60982961       7.13673871      -0.92783774  F        0
H        4.51175007       7.13509558      -0.92932085  F        0
H        5.61112307      13.75835362       9.62625607  F        0
H        7.72879001      10.28772525      10.77169866  F        0
H        6.35949513       2.97597070       8.47938261  F        0
H       12.76321398       2.97604733       8.47995589  F        0
H       12.76333233      11.30075111       8.47967776  F        0
H        3.92251131      10.29939702       9.62769700  F        0
H       14.61405599       7.13800201       8.47661577  F        0
H        4.50898861       7.14016697       8.47499567  F        0
H       13.51084140      13.75504172      -2.09873350  F        0
H        5.62495998      13.75277707      -2.09714276  F        0
H       11.39521725      10.28762784      -3.24237523  F        0
H        7.72914317      10.28615024      -3.24155184  F        0
H       15.19994748      10.29594087      -2.09275354  F        0
H        3.92376286      10.29502607      -2.09159850  F        0
Fe       9.53062942       7.23596522       3.73283334  T        1
