145
Lattice="20.102 0.0 0.0 0.0 19.731 0.0 0.0 0.0 13.253" Properties=species:S:1:pos:R:3:move_mask:L:1:tags:I:1 i=77 E=-3472.0240129048 regions="_JSON [\"Active\"]" n_terminators=30 energy=-1003.4356535479453 pbc="F F F"
O       10.12232062       8.36552590       9.07817503  T        0
O        0.00436620       8.32193277      10.31290097  T        0
O        7.79462223       8.63405647      10.40025845  T        0
O        7.86378562       6.99689664       8.38723388  T        0
O        8.08693415       9.62995158       7.91322100  T        0
O        3.63270970      10.20230917       6.13823952  T        0
O        6.40159152       8.56076194      12.70058022  T        0
O        3.44758580      19.37014673       6.16988008  T        0
O        6.43074161      19.07556078      11.09063544  T        0
O        6.16141486      10.62308627      11.01664748  T        0
O        5.11513267       8.23113875      10.42731763  T        0
O        4.12020876      12.36177516       7.76937685  T        0
O        4.07719396      17.43830725       7.95616265  T        0
O        6.14584315      10.98621870       6.67630161  T        0
O        6.01402093      18.82277276       6.75874054  T        0
O        4.58835467       9.81884172       8.47537191  T        0
O        4.37082053      20.00337665       8.52561761  T        0
O        8.10014377      12.30306906       7.92629029  T        0
O        8.03783226      17.37992971       7.71245809  T        0
O        8.67826158      11.08811466       5.72748531  T        0
O        1.67442822       8.87388197      12.35434830  T        0
O        8.47657555      19.35990618       5.82083199  T        0
O       12.28493354       8.52114375       7.41238410  T        0
O        2.54472128       8.78938268       9.85376356  T        0
O       12.57227923       8.42109135      10.05426302  T        0
O        1.47654020      18.94555664      11.01728651  T        0
O        0.96024455      10.79772766      10.67247258  T        0
O       11.43180138      10.62926095       8.88329163  T        0
O       11.87719795      18.90646042       9.21593675  T        0
O        3.82763587       7.18336906       8.27189878  T        0
O       10.11961470      16.91848258       9.70418284  T        0
O       10.30650715      12.99990627       9.26907487  T        0
O        7.12455585      16.62188161      10.29766951  T        0
O        7.99099084      12.57262126      10.56986022  T        0
O        8.21946982      14.70621253       9.00815497  T        0
O        6.10893174      17.03270830      12.75391594  T        0
O        6.33281656      12.71701297      12.64393005  T        0
O        4.58427720      17.18869058      10.58546977  T        0
O        5.45979534      13.07361215      10.15274095  T        0
O        1.49918194      16.54472054      12.21807182  T        0
O        1.27714830      12.69153833      12.49417778  T        0
O       12.52425515      12.81945641       7.71628570  T        0
O       11.34149044      16.95200731       7.39673527  T        0
O        2.13194232      16.73658203       9.67527520  T        0
O        2.46031386      12.95934638      10.11187489  T        0
O       12.73977217      12.42653388      10.30570510  T        0
O       12.81355922      16.37464654       9.48915254  T        0
O        4.21798526      15.05538532       9.08821650  T        0
Si       8.49319268       8.41888036       8.93312232  T        0
Si       6.37131298       8.99877350      11.12552825  T        0
Si       4.60159773      10.90443450       7.26254328  T        0
Si       4.49770848      18.90505159       7.34258135  T        0
Si       7.72355842      10.97168407       7.06682082  T        0
Si       7.62516105      18.82949565       7.12499427  T        0
Si       1.29825919       9.20855043      10.80599226  T        0
Si      11.61965132       9.00289490       8.84647412  T        0
Si       4.01713050       8.49655329       9.23419019  T        0
Al       8.54330013      16.50750911       9.12506252  T        0
Si       8.69629131      13.13389707       9.18772978  T        0
Si       6.07056620      17.51801666      11.19754387  T        0
Si       6.48330981      12.19904624      11.11006042  T        0
Si       1.15838167      17.36402282      10.84885474  T        0
Si       1.16419254      12.40781873      10.87831388  T        0
Si      11.73307476      12.21900079       9.02921102  T        0
Si      11.52980780      17.30760515       9.00168290  T        0
Si       3.70981528      16.61585240       9.30930421  T        0
Al       3.89197634      13.26111249       9.23323509  T        0
O       10.13370990      20.98664920       9.35167117  T        0
O        0.04967549      21.24444013      10.45585555  T        0
O        7.81885444      21.27449218      10.54756757  T        0
O        8.27423506      22.67968923       8.31294877  T        0
O        7.87939659      19.99586993       8.24011406  T        0
O        6.59928129      21.05271971      12.90380652  T        0
O        5.15313820      21.36369750      10.64597801  T        0
O        1.55780897      21.04131083      12.67890674  T        0
O       11.53407082      20.78261251       7.23154718  T        0
O        2.58936743      21.17589927      10.15716872  T        0
O       12.78587320      21.41247250       9.55777776  T        0
O        4.03864789      22.68756445       8.55682031  T        0
Si       8.54035488      21.23542187       9.06467919  T        0
Si       6.49243620      20.70237817      11.29659983  T        0
Si       1.40260556      20.57858656      11.09844429  T        0
Si      11.61230320      20.48945598       8.84923432  T        0
Si       4.04108107      21.30810009       9.44788265  T        0
O        2.35402255      10.82844181      17.14593689  T        0
O        1.79810320      12.31577339      15.04783669  T        0
O        1.26882134      17.28807069      14.72220757  T        0
O        1.65153422       9.63875753      14.87990210  T        0
O        3.54385751      11.09931871      19.43622016  T        0
O        3.62927621       8.70914140      18.28020767  T        0
O        5.03213030      10.74963848      17.21488501  T        0
O        5.37625855       7.16867903      14.82608782  T        0
O        3.95234002       9.01670729      13.69001096  T        0
O        6.16851275       9.74093560      15.04006837  T        0
O        2.12646083       7.08444995      14.24131489  T        0
O        7.58115384      11.44104676      16.59383192  T        0
O        5.62547715      12.36630390      15.18102702  T        0
O        5.82261255      16.95245755      15.44924179  T        0
O        5.52839187      14.78770482      14.08363801  T        0
O        3.70078374      16.74986473      13.77422502  T        0
O        3.77515975      12.93323954      13.34501409  T        0
O        1.95930466      14.75021173      14.08713861  T        0
Si       1.41056619      10.94107341      15.83067106  T        0
Si       3.65157977      10.33544644      17.99226503  T        0
Si       5.49211867       8.62116024      14.06360208  T        0
Si       2.35699898       8.64913669      13.79883087  T        0
Si       6.09534023      11.04994286      16.01978899  T        0
Si       5.27720081      16.38728849      14.00957385  T        0
Si       5.31175791      13.19645842      13.82624984  T        0
Si       2.12077376      16.32329441      13.70089902  T        0
Si       2.20121471      13.17451306      13.73326167  T        0
O       -0.14450326      10.96265646      16.35570112  T        0
O       -0.15726054      13.22046087      10.30649095  T        0
O       -0.42126499      17.26813127      10.43164136  T        0
H       -0.89571882       8.42972886      10.66739018  F        0
H        7.84356088       6.72376138       7.45668423  F        0
H        3.46536401      10.58100877       5.26900439  F        0
H        3.46536401      19.01504758       5.26900440  F        0
H        8.50665683      10.58475679       4.91774357  F        0
H        8.50665683      19.01129957       4.91774358  F        0
H       12.20788617       8.97653229       6.55602501  F        0
H       13.54926599       8.42132791      10.11787432  F        0
H        4.51576461       6.77574371       7.71911054  F        0
H       12.09335996      12.92196996       6.85557054  F        0
H       12.09335995      16.67408638       6.85557055  F        0
H       13.32025657      13.20375310      10.31771692  F        0
H       13.32025658      16.39230324      10.31771692  F        0
H       -0.89571882      21.16662326      10.66739019  F        0
H        7.84356087      22.87259074       7.45668424  F        0
H        6.01931354      20.68412461      13.59787507  F        0
H        2.15673526      20.61981695      13.32343299  F        0
H       12.20788616      20.61981982       6.55602502  F        0
H       13.54926599      21.17502420      10.11787433  F        0
H        4.51576461      22.82060840       7.71911054  F        0
H        1.72627225      17.76721957      15.42933043  F        0
H        4.03183819      10.81847925      20.22438289  F        0
H        3.60112680       8.06005012      17.55946574  F        0
H        6.01932001       6.80354450      15.45091456  F        0
H        1.83990596       6.82542533      15.13110093  F        0
H        8.12388129      10.93300164      17.21761941  F        0
H        5.82176689      17.87210706      15.75639142  F        0
H       -0.90389482      10.88061926      15.75378840  F        0
H       -1.04605969      13.03623234      10.65268580  F        0
H       -1.04605969      16.55982401      10.65268579  F        0
Fe       6.23131773      14.89719807       9.65411807  T        1
