139
Lattice="19.123 0.0 0.0 0.0 14.277 0.0 0.0 0.0 7.5465" Properties=species:S:1:pos:R:3:move_mask:L:1:tags:I:1 i=128 E=-2603.9155142701 regions="_JSON [\"Active\"]" n_terminators=34 energy=-933.1420561106806 pbc="F F F"
O        6.25726429       1.21217818       1.85401734  T        0
O       15.64368481       8.49906190       5.86105949  T        0
O       12.85908982       1.24326906       2.02259841  T        0
O        3.49279046       8.49899923       5.86868275  T        0
O        6.18715558      13.13766659       1.59228964  T        0
O       15.65375044       5.81825215       5.88856608  T        0
O       12.93082093      13.13079689       1.59734526  T        0
O        3.48314433       5.81458688       5.87328293  T        0
O       12.93248143      13.13319364       5.93115668  T        0
O        3.48736393       5.81740676       1.65586078  T        0
O        6.19045850      13.13699427       5.95480360  T        0
O       15.66913934       5.81142582       1.69735665  T        0
O       13.01348074       1.15127306       6.00821679  T        0
O        3.48329294       8.50222389       1.68514360  T        0
O        6.27351867       1.22411622       5.63244778  T        0
O       15.62315857       8.49439028       1.68058892  T        0
O        7.19214673       3.61947619       2.41036611  T        0
O       17.14879119      10.74166159       6.12556388  T        0
O       11.87157991       3.63508357       2.34646351  T        0
O        1.98258324      10.73903378       6.12930142  T        0
O        7.22468746      10.76607908       2.45765948  T        0
O       17.15625694       3.57246700       6.15121069  T        0
O       11.91204872      10.74699537       2.45420082  T        0
O        1.93492487       3.61300613       6.13059203  T        0
O       11.91243710      10.74602855       5.09074602  T        0
O        1.93427682       3.62331984       1.38802679  T        0
O        7.22709084      10.76265260       5.09339570  T        0
O       17.16496228       3.57014117       1.41823194  T        0
O       11.92576146       3.48012373       5.01970375  T        0
O        1.97939993      10.74818066       1.43300608  T        0
O        7.20286178       3.62646963       5.11722953  T        0
O       17.15020496      10.72254157       1.42249594  T        0
O        6.30676034       3.05447694      -0.10046507  T        0
O       16.06615351      10.12755146       3.77272917  T        0
O       12.81421543       2.96861999      -0.10397214  T        0
O        3.06084314      10.13177878       3.77871308  T        0
O        6.68624785      11.06611920      -0.04291355  T        0
O       16.15133700       4.21150030       3.79755126  T        0
O       12.44263472      11.05945716      -0.04485790  T        0
O        2.91736638       4.26459901       3.76281549  T        0
O        4.57532476       3.35432128       1.89062850  T        0
O       14.49282108      10.93620887       5.78253127  T        0
O       14.51269847       3.38451761       1.88026562  T        0
O        4.64225891      10.93377413       5.78151592  T        0
O        4.63990525      10.93387017       1.77188765  T        0
O       14.49205305       3.39678731       5.74269089  T        0
O       14.49371194      10.93791047       1.76387315  T        0
O        4.58120601       3.35808006       5.63268123  T        0
O       11.18433666       8.46997716       3.77220591  T        0
O        7.94631092       8.48648574       3.77395463  T        0
O       11.17733740       5.81754949       3.79328462  T        0
O        7.95383019       5.84673358       3.76276669  T        0
O        9.56994327      10.55101337       3.77257026  T        0
O        9.54764621       3.75254604       3.74760754  T        0
O       13.41059982       7.14852561       5.19213008  T        0
O        5.72605882       7.15131954       5.19173207  T        0
O        5.72068896       7.16210329       2.35537454  T        0
O       13.40402453       7.12148508       2.35849955  T        0
O       14.10570811       7.09314831      -0.10480601  T        0
O        5.02946929       7.16816785      -0.11439815  T        0
Si       6.06627502       2.81293116       1.50845980  T        0
Si      15.82900223      10.05943150       5.39916099  T        0
Si      13.03282159       2.80935086       1.51660889  T        0
Si       3.30321344      10.05976631       5.40332461  T        0
Si       6.14356655      11.48651638       1.45263012  T        0
Si      15.84878946       4.26093592       5.41210404  T        0
Si      12.98523705      11.48084789       1.45094938  T        0
Si       3.24350223       4.27260861       5.36939078  T        0
Si      12.98562313      11.48426643       6.09139739  T        0
Si       3.24278857       4.27502668       2.15624872  T        0
Si       6.14683867      11.48632834       6.09672000  T        0
Si      15.86807080       4.25646990       2.18134202  T        0
Si      13.00485356       2.80543512       6.07487783  T        0
Si       3.29977675      10.06256862       2.15343370  T        0
Si       6.07344071       2.81651589       6.01181699  T        0
Si      15.82435120      10.05343935       2.14811097  T        0
Si      11.16123896      10.14916955       3.77278487  T        0
Si       7.97507403      10.16262988       3.77404861  T        0
Si      11.15016626       4.13892135       3.73530952  T        0
Si       7.95324576       4.16816649       3.75913802  T        0
Si      14.71307666       7.15727626       6.12955222  T        0
Si       4.42062249       7.15324437       6.12417403  T        0
Si       4.41804006       7.16322923       1.41955385  T        0
Si      14.71319734       7.13533182       1.43085582  T        0
Al      12.45160490       7.13739113       3.77864609  T        0
Al       6.67770263       7.16342683       3.77136984  T        0
O        6.25497509       1.25980354       9.69343993  T        0
O        7.20944362       3.80425934       9.95355736  T        0
O        6.30730211       3.04416085       7.62378999  T        0
O       12.47308239       3.23300679       7.57897822  T        0
O        6.68901985      11.07042075       7.59381044  T        0
O       12.43812443      11.07659809       7.58857197  T        0
O        4.49900913       3.19574012       9.68250696  T        0
O       14.09849675       7.17648303       7.66054850  T        0
O        5.02777387       7.13689319       7.65994964  T        0
Si       6.06581212       2.84701626       9.24556437  T        0
O       12.86749675       1.25478508      -2.21098695  T        0
O        6.26283276       1.26621951      -2.17042952  T        0
O       11.90883469       3.79697783      -2.42354712  T        0
O        7.19366604       3.81927019      -2.43252631  T        0
O       14.62056615       3.19334958      -2.15688799  T        0
O        4.49186626       3.18880226      -2.15225896  T        0
Si      13.05504748       2.83149892      -1.73011570  T        0
Si       6.06215401       2.85057400      -1.71990683  T        0
H        5.61083456       0.52083913       2.07985367  F        0
H       13.50938118       0.51971906       2.07492992  F        0
H        5.61112307      13.75835362       2.07975607  F        0
H       13.50958039      13.75682243       2.07498241  F        0
H       13.51084140      13.75504172       5.44776650  F        0
H        5.62495998      13.75277707       5.44935724  F        0
H       13.50975252       0.52161770       5.44778410  F        0
H        5.62509051       0.52255101       5.44942550  F        0
H       17.28974254      11.12548174       7.01862795  F        0
H        1.83343022      11.12554006       7.01950242  F        0
H       17.28979000       3.14560285       7.02339196  F        0
H        1.81954193       3.15353441       6.98813474  F        0
H        1.83183800       3.14857954       0.53722786  F        0
H       17.29134854       3.14797220       0.53999843  F        0
H        1.83154049      11.12909684       0.54034962  F        0
H       17.29120144      11.12876736       0.54010345  F        0
H        6.36236324      11.29726414      -0.93275871  F        0
H       12.76174962      11.29928001      -0.93393629  F        0
H       14.60982961       7.13673871      -0.92783774  F        0
H        4.51175007       7.13509558      -0.92932085  F        0
H        5.61083456       0.52083913       9.62635367  F        0
H        7.72835374       3.98992704      10.77074871  F        0
H       12.76321398       2.97604733       8.47995589  F        0
H        6.35946036      11.30224636       8.48133548  F        0
H       12.76333233      11.30075111       8.47967776  F        0
H        3.92366420       3.98179322       9.62196525  F        0
H       14.61405599       7.13800201       8.47661577  F        0
H        4.50898861       7.14016697       8.47499567  F        0
H       13.50975252       0.52161770      -2.09871590  F        0
H        5.62509051       0.52255101      -2.09707450  F        0
H       11.39412799       3.98861071      -3.24188863  F        0
H        7.72584421       3.99139588      -3.24276680  F        0
H       15.19955093       3.97637223      -2.09238403  F        0
H        3.91490408       3.97370239      -2.09385012  F        0
Fe       9.56609242       7.15530441       3.77723041  T        1
