138
Lattice="19.123 0.0 0.0 0.0 14.277 0.0 0.0 0.0 7.5465" Properties=species:S:1:pos:R:3:move_mask:L:1:tags:I:1 i=128 E=-2603.9155142701 regions="_JSON [\"Active\"]" n_terminators=34 energy=-920.6425237668167 pbc="F F F"
O       15.97474687       8.45030016       5.59603948  T        0
O       12.90360769       1.31994632       1.59813226  T        0
O       15.55295466       5.94930953       5.79593909  T        0
O       15.65738859       5.86490286       1.77065465  T        0
O       12.85814771       1.21819809       5.71306816  T        0
O       15.87478423       8.50238627       1.66587646  T        0
O       11.70844789       3.57859665       2.45871889  T        0
O       17.09921882       3.47158059       6.11033548  T        0
O       16.89993925       3.53477904       1.17228124  T        0
O       11.58350231       3.50309187       5.15804782  T        0
O       12.47442200       3.39404538      -0.09536364  T        0
O       16.24304316       4.02857250       3.66807767  T        0
O       14.31222218       3.55489679       1.87025836  T        0
O       14.21843324       3.44397331       5.70257894  T        0
O       11.33731310       8.39969791       3.69929446  T        0
O       16.92882857       1.31752828      -0.33187251  T        0
O       11.82811850       5.83111194       3.86667634  T        0
O        9.50783755       4.57910901       3.73186080  T        0
O       13.44833038       7.54210739       5.16745518  T        0
O       15.44024551      -0.09532144       1.37764979  T        0
O       15.23148614      -0.00916374       6.26138860  T        0
O       13.54246239       7.37195465       2.49914094  T        0
O       14.17926052       7.20834601      -0.05222588  T        0
O       14.35931706       0.00004551       3.79937195  T        0
Si      12.83822255       2.92957853       1.45911607  T        0
Al      15.65097629       4.31342387       5.37785584  T        0
Si      15.75111078       4.26673092       2.09191074  T        0
Si      12.78116971       2.82848753       6.06628256  T        0
Si      17.54364976       2.84233635      -0.18068675  T        0
Si      11.13380886       4.34315299       3.80543363  T        0
Si      14.83000000       7.35069274       6.04754279  T        0
Al      13.74004154      -0.10935355       2.07179065  T        0
Si      13.83789614      -0.03093926       5.38828022  T        0
Si      14.81040083       7.25299520       1.47680715  T        0
Si      12.55107457       7.29252456       3.81338671  T        0
Si      16.17620976      -0.11882171      -0.11742567  T        0
O       21.20995300       3.64614019       8.95894680  T        0
O       21.42329176       1.23657494       7.67305471  T        0
O       19.24950379       2.84760463       7.50582845  T        0
O       23.66583748      -0.10364717       8.45147425  T        0
Si      20.90273894       2.79605776       7.58035635  T        0
Si      22.30942003      -0.14811208       7.49608651  T        0
O       22.42961553       5.90907448       5.63658375  T        0
O       22.42030054       5.89412527       1.75699317  T        0
O       21.57198538       3.46498641       6.22047106  T        0
O       21.52711504       3.46572891       1.24039505  T        0
O       22.46575299       3.99362627       3.72419843  T        0
O       24.20696908       3.95825515       1.60880925  T        0
O       24.23729365       3.98614296       5.81971336  T        0
O       21.33147180       1.17912795      -0.13434967  T        0
O       19.17959031       2.79742613      -0.02503937  T        0
O       22.89065750      -0.20552300       1.58795079  T        0
O       22.93022869      -0.25396437       5.96162995  T        0
Si      22.68268338       4.30868715       5.33514959  T        0
Si      22.66083301       4.29945347       2.10472588  T        0
Si      20.84034573       2.75444422      -0.09146621  T        0
Si      22.29835626      -0.15079425       0.03979797  T        0
O       21.19476410       3.54170619      -1.49881809  T        0
O       23.66145589      -0.02525958      -0.89793781  T        0
O       21.34222388      -1.42964050       7.87310341  T        0
O       21.46366142      -1.52371930      -0.34926642  T        0
O       13.14474063       1.14257523       9.47599334  T        0
O       15.54727874       5.88634919       9.51551125  T        0
O       15.53943745       8.48752687       9.95773551  T        0
O       11.74553239       3.18623343      10.32805247  T        0
O       16.92390149       3.69332510       8.79687847  T        0
O       12.45280529       2.99561684       7.68100344  T        0
O       16.29058411       4.00863229      11.34960286  T        0
O       14.33173756       3.52832748       9.52313366  T        0
O       17.09806305       1.28924869       7.63204284  T        0
O       15.37151435      -0.28365095       8.93018829  T        0
O       13.16049077       7.11172020       9.83895785  T        0
O       14.45904630       7.53428526       7.64046984  T        0
O       14.57335922      -0.14252505      11.41173761  T        0
Si      12.91330986       2.75751137       9.24320183  T        0
Si      15.75194237       4.28733660       9.81202312  T        0
Si      17.60639939       2.83911631       7.57158919  T        0
Si      14.01978415      -0.18464500       9.85935213  T        0
Si      14.69380516       7.26544373       9.23093762  T        0
Si      16.23860561      -0.09287042       7.56193893  T        0
O       17.12719757       3.72263298      -1.52269320  T        0
O       15.04515835      -0.47428567      -1.27322555  T        0
O       13.14122849      -1.53917609       9.56767848  T        0
O       11.62181659      -3.75477624       9.84393249  T        0
O       12.92925408      -3.29824877       7.54700937  T        0
O       14.24542971      -4.03934013       9.80477594  T        0
O       17.36317813      -1.27967299       7.35837873  T        0
Si      13.00270397      -3.13417395       9.19029415  T        0
O       13.06779288      -1.65074112       1.78626958  T        0
O       12.94332149      -1.35912101       5.68577271  T        0
O       11.93069322      -3.96290148       2.41665864  T        0
O       11.90773442      -3.75975809       5.09160790  T        0
O       12.42950124      -3.44583257      -0.14068503  T        0
O       14.58165125      -3.24884206       5.33228532  T        0
O       14.49246554      -3.96466295       1.40907678  T        0
O       11.30289011      -6.10884543       3.90945150  T        0
O       17.36587553      -1.26402827      -0.12598473  T        0
O        9.57181440      -4.01736460       3.80463875  T        0
Si      12.99541155      -3.21639224       1.40026706  T        0
Si      13.05793537      -2.97200234       5.93842918  T        0
Si      11.15933687      -4.45934676       3.78070262  T        0
H       15.75671561       9.37610020       5.45468838  F        0
H       15.75699573       9.38061947       2.07980242  F        0
H       12.76076393       2.97683097      -0.93375646  F        0
H       11.31595404       9.37380971       3.76235534  F        0
H        8.59637561       4.20354031       3.76204115  F        0
H       14.60982961       7.13673871      -0.92783774  F        0
H       22.00636260       3.98381786       9.40800429  F        0
H       23.80717611       0.00053719       9.40943871  F        0
H       23.07136830       6.61169953       5.84807952  F        0
H       23.06898247       6.62073046       1.68518482  F        0
H       24.75935035       3.15857028       1.68481677  F        0
H       24.75385446       3.15950316       5.84781029  F        0
H       23.80717611       0.00053719       1.86293871  F        0
H       23.83786620      -0.00082127       5.68998115  F        0
H       21.98145514       3.97853683      -1.88343379  F        0
H       23.83786620      -0.00082127      -1.85651885  F        0
H       20.87589949      -2.23551612       7.54748495  F        0
H       20.87589949      -2.23551612       0.00098495  F        0
H       15.75699573       9.38061947       9.62630242  F        0
H       11.39369377       3.98884644      10.77146895  F        0
H       15.92754156       4.15729643      12.25107281  F        0
H       12.88235039       7.13795337      10.76981689  F        0
H       14.07270598       0.00010018      12.23669175  F        0
H       16.23925818       3.97887666      -1.85852020  F        0
H       14.44051635       0.00152190      -1.88177140  F        0
H       11.39439525      -3.98966818      10.77116771  F        0
H       15.20026252      -3.97967031       9.62683702  F        0
H       17.37005868      -2.23547784       7.54748707  F        0
H       12.76174962      -2.97771999      -0.93393629  F        0
H       15.19994748      -3.98105913       5.45374646  F        0
H       15.20026252      -3.97967031       2.08033702  F        0
H       12.12595522      -6.62290057       3.76264176  F        0
H       17.37005868      -2.23547784       0.00098707  F        0
H        8.59739021      -4.20337067       3.76217937  F        0
Fe      17.61110328       2.62871238       4.33764247  T        0
Fe      16.30487616       0.18168859       3.21354243  T        1
O       17.88134289       0.94000884       3.70938514  T        2
