138
Lattice="24.397 0.0 0.0 0.0 24.397 0.0 0.0 0.0 24.397" Properties=species:S:1:pos:R:3:move_mask:L:1:tags:I:1 i=41 E=-6943.8331748197 regions="_JSON [\"Active\"]" n_terminators=30 energy=-941.9116035349181 pbc="F F F"
O       21.66074040       2.57980713       0.05026247  T        0
O       21.85560688       6.19756315       3.42959328  T        0
O       15.54659685       9.70007886       6.26399856  T        0
O       20.99101988      12.51913170       3.60826069  T        0
O       20.98918278       3.62615999      12.54164105  T        0
O       15.51409329       6.33492406       9.77398993  T        0
O       21.85294087      -0.03387735       2.52555201  T        0
O       18.33443961       9.60390307       3.32244579  T        0
O       21.74858080       3.48829504       5.91768145  T        0
O       18.33044020       3.29591052       9.60328590  T        0
O       23.75449039       1.69968979       1.76877382  T        0
O       22.78965374       5.33400443       7.97702306  T        0
O       22.57305214       7.97818382       5.30866461  T        0
O       17.62057435      10.54724903       7.85499601  T        0
O       20.04413861      10.55355938       5.19477379  T        0
O       23.61025929       4.29793136       4.22912436  T        0
O       17.65601109       7.89036242      10.52192093  T        0
O       20.02372989       5.17390360      10.56447027  T        0
O       20.83865753       5.92913493       5.78938112  T        0
O       18.10990583       8.87997752       5.93406220  T        0
O       21.94142419      12.23654347       6.15213609  T        0
O       20.96881715       0.00583806       0.00032860  T        0
O       24.31656305       2.71607010       6.26843575  T        0
O       24.40004629       6.21710848       2.56776737  T        0
O       18.04562849       5.90234825       8.92957884  T        0
O       21.93181442       6.16430664      12.22548739  T        0
O       22.63787547       4.34399125       1.73694502  T        0
O       22.61432505       4.39059241      10.49560931  T        0
O       20.07611839       8.00291062       4.33221493  T        0
O       16.61161350       8.01274574       8.01705091  T        0
O       22.60684286      10.48346485       4.37932378  T        0
O       22.81557333       1.72812675       4.26821306  T        0
O       20.00868317       4.39701794       7.97678731  T        0
Al      23.33157081       3.00740624       0.72687692  T        0
Si      23.61989527       4.83068949       9.27167512  T        0
Si      21.34814965       7.08010800       4.73961793  T        0
Si      16.95606256       9.28061455       7.02851140  T        0
Si      21.36156675      11.46409686       4.82450437  T        0
Si      23.22086054       0.78261322       2.98138338  T        0
Si      19.13073300       9.27867798       4.72696412  T        0
Al      21.41377600       4.83085508       7.10504673  T        0
Si      23.54627725       9.21967557       4.82301571  T        0
Si      23.15826688       3.02782072       5.18285625  T        0
Si      19.11713615       4.70983221       9.26999659  T        0
Si      23.15567227       5.26992227       2.99375382  T        0
Si      21.35504738       4.82699102      11.45986626  T        0
Si      16.94452129       7.03162133       9.30500308  T        0
O       27.01350006       8.65280635       6.13545503  T        0
O       24.52285896       3.51595968       8.82805731  T        0
O       27.06854369       6.14937900       8.66812705  T        0
O       24.42912783       8.71494403       3.53232526  T        0
O       25.24960621       8.02562467       8.07118555  T        0
O       26.38384067       6.96209805       4.14288923  T        0
O       26.41645489       4.12739022       7.00074989  T        0
O       24.51860183       9.60170885       6.06601562  T        0
O       24.62517597       6.03405791       9.75038583  T        0
O       27.91281934       6.12633531       6.12874976  T        0
O       26.30562274      10.52436289       7.86309394  T        0
O       28.88294302       7.95720475       4.39038665  T        0
O       26.39056018       7.92366050      10.51412150  T        0
O       26.16438515       8.02836294       1.65631531  T        0
O       28.92683534       4.41080094       7.94830425  T        0
O       26.09941960       1.60153587       7.94844803  T        0
Si      25.76632656       9.20076130       7.05313617  T        0
Si      25.81610432       7.03365610       9.25597972  T        0
Si      25.36163545       7.48333522       2.98291156  T        0
Si      27.57726413       5.20038676       7.43651186  T        0
Si      27.55507770       7.42119386       5.20063796  T        0
Si      25.34783517       3.00008390       7.51588429  T        0
O       24.70167167       2.41937390      -2.83593376  T        0
O       26.23874006       1.80007602      -0.69537620  T        0
O       24.35280770      -0.15807773      -3.59268007  T        0
O       26.52141552       4.18164187      -2.06641885  T        0
Si      25.47908378       3.02666555      -1.50713268  T        0
O       24.61425849      -2.71237535       2.41938179  T        0
O       26.30594407      -0.64370440       1.84955106  T        0
O       24.45256672      -3.71299125      -0.08238071  T        0
O       26.32642398      -1.98157385       4.26586385  T        0
Si      25.42066000      -1.40842372       3.01326181  T        0
O       17.97254878       2.42378103      -3.43758522  T        0
O       21.00047878       2.53052111      -6.39168015  T        0
O       19.98904317       0.95897449      -4.48459957  T        0
O       22.68141081       0.99673076      -1.80788785  T        0
O       24.42512322       3.61342302      -0.43605186  T        0
O       18.36915360      -0.14624987      -2.62361069  T        0
O       21.90497545      -0.05125899      -6.12254853  T        0
O       20.06492687       1.67326296      -1.90220993  T        0
O       22.59310364       1.69018396      -4.36632026  T        0
Si      19.08264173       1.23245451      -3.14863520  T        0
Si      21.34609754       1.28598551      -5.35458500  T        0
Si      23.60503251       1.24141946      -3.15443282  T        0
Si      21.32920211       1.28102462      -0.94648026  T        0
O       18.01245527      -3.43166237       2.45294532  T        0
O       21.00062188      -6.41472328       2.51767685  T        0
O       22.64943589      -1.89903394       0.79017601  T        0
O       20.00681594      -4.47699074       0.96476966  T        0
O       24.35474647      -0.27275097       3.50558073  T        0
O       18.36672308      -2.62611350      -0.13179709  T        0
O       21.90999826      -6.12373477      -0.05273417  T        0
O       20.10155801      -1.89422653       1.66686517  T        0
O       22.61232968      -4.39095746       1.71306077  T        0
Si      21.38762779      -0.96716833       1.25405411  T        0
Si      21.35370435      -5.36068873       1.28982573  T        0
Si      23.59470799      -3.17451552       1.21487702  T        0
Si      19.10508107      -3.13558799       1.24397503  T        0
H       15.43757914      10.38640764       5.57209357  F        0
H       20.10951523      12.72546585       3.23923157  F        0
H       20.10951519       3.23923103      12.72546793  F        0
H       15.43757911       5.57209275      10.38640946  F        0
H       17.77043279      10.38640226       3.23924444  F        0
H       17.77043311       3.23924387      10.38640412  F        0
H       17.22544067      10.92750153       8.65411313  F        0
H       17.22544070       8.65411150      10.92750362  F        0
H       21.54216027      12.99764967       6.60187561  F        0
H       21.54216028       6.60187434      12.99765198  F        0
H       25.88537327      10.95404844       8.63278900  F        0
H       29.25185888       7.58759487       3.56561113  F        0
H       25.88537328       8.63278754      10.95405052  F        0
H       26.93058105       7.58756876       1.24433203  F        0
H       29.25185918       3.56561063       7.58759619  F        0
H       26.93058086       1.24433163       7.58757011  F        0
H       26.95192867       1.27083937      -1.07240246  F        0
H       25.19622735      -0.50276655      -3.24494277  F        0
H       26.93057835       4.85486043      -1.48866112  F        0
H       26.95192866      -1.07240650       1.27083969  F        0
H       25.19622853      -3.24494603      -0.50276481  F        0
H       26.93057847      -1.48866524       4.85486109  F        0
H       17.77043356       2.85994955      -4.28747201  F        0
H       20.10952426       2.85994950      -6.62656333  F        0
H       17.49833355      -0.50278089      -2.85477948  F        0
H       21.54221652      -0.50278066      -6.89866328  F        0
H       17.77043326      -4.28747560       2.85995000  F        0
H       20.10952426      -6.62656664       2.85995001  F        0
H       17.49833238      -2.85478383      -0.50277915  F        0
H       21.54221602      -6.89866750      -0.50277915  F        0
Fe      20.35007184       4.26761599       4.59007252  T        0
Fe      20.72562967       3.42620497       1.60050687  T        1
O       19.64110647       3.66517031       3.03328762  T        2
