133
Lattice="20.102 0.0 0.0 0.0 19.731 0.0 0.0 0.0 13.253" Properties=species:S:1:pos:R:3:move_mask:L:1:tags:I:1 i=77 E=-3472.0240129048 regions="_JSON [\"Active\"]" n_terminators=34 energy=-879.443292714007 pbc="F F F"
O       10.16261621       8.50703283       9.34768544  T        0
O       10.19539114      10.81449467       3.82190251  T        0
O        7.94431498       8.54101738      10.72629686  T        0
O       12.66041321      11.43834446       2.95557186  T        0
O        8.00707182       7.23573163       8.37736566  T        0
O       11.59983940      12.60138550       5.20150721  T        0
O        8.21992173       9.93211023       8.40594358  T        0
O       12.39643611       9.99004366       5.10372912  T        0
O       16.79795943       8.56183441       7.23232263  T        0
O       13.82428415      10.99439606       0.54421667  T        0
O       13.49441010       9.01232417       2.19274758  T        0
O        4.92354354      11.19005234       4.19814001  T        0
O       15.30786866      10.95781632       2.73582336  T        0
O        5.72575368       7.34837733       1.51584302  T        0
O       16.32583139       7.41264784       4.96762825  T        0
O        5.87532878      10.36869469       7.48029291  T        0
O        3.94704897       8.71684214       0.02484469  T        0
O       14.29091197       8.58078928       6.27790595  T        0
O        5.49306872       9.95348079       1.85209598  T        0
O       16.13039457      10.09050832       5.12374915  T        0
O        7.42397122      12.47683153       8.12079967  T        0
O       12.06966885       7.36346612       5.48944602  T        0
O        8.10657556      10.95564735       5.97425622  T        0
O       12.00917835       9.09743859       7.53763833  T        0
O        7.33463470      11.38374125       3.18401170  T        0
O       12.59669808       8.27313991      10.05831722  T        0
O       17.82750425      11.39818186       3.44278871  T        0
O        8.45890426       8.88267781       3.84733086  T        0
O       11.76368124      10.75613249       9.65434435  T        0
O        5.22815896      12.62775257       1.95976789  T        0
O       15.91038563      12.74087640       4.64302457  T        0
O       10.09140557       6.96426855       3.81839185  T        0
O       12.55521800       6.46963759       2.97696987  T        0
O       11.43476521       4.87005361       4.89070952  T        0
O       13.69853258       2.63403271       0.56593478  T        0
O       13.85042435       7.18872450       0.30569963  T        0
O        5.17976589       6.81867812       4.15626451  T        0
O       15.41096588       6.71545230       2.57828861  T        0
O        5.96663881       5.92625003       7.11490604  T        0
O        8.30482649       4.80850512       7.27926782  T        0
O        8.13588099       7.02944025       5.78076232  T        0
O        7.57164716       6.40998974       3.24262126  T        0
O       17.97367284       6.27681939       3.16032411  T        0
O        5.62058193       4.83398219       2.30365426  T        0
O       16.11370047       4.84580020       4.44632926  T        0
Si       8.54268514       8.55205683       9.19566427  T        0
Si      11.71536478      11.23361163       4.29977736  T        0
Si      13.82962653      10.60603262       2.17016696  T        0
Si       5.42743047       8.76794045       0.74323889  T        0
Si      15.87124352       8.66052773       5.88506636  T        0
Si       7.41732072      10.96632861       7.43476080  T        0
Si      12.68167183       8.73690277       6.11321180  T        0
Al       8.41966411      10.63136331       4.31579768  T        0
Si      11.61438207       9.19538679       9.12582695  T        0
Si       5.77320516      11.28998088       2.77276440  T        0
Si      16.28982828      11.27015779       4.01646545  T        0
Si      11.59656009       6.37917852       4.26488216  T        0
Al      13.84956184       7.25743782       2.12481294  T        0
Si       7.57236171       6.27650940       7.13693534  T        0
Si       8.51511818       7.29237057       4.23744310  T        0
Si       5.99456280       6.36409241       2.78693173  T        0
Si      16.42975517       6.30935793       3.76365087  T        0
O       10.03008756       8.69280035      -4.02460930  T        0
O        7.75831543       8.85668361      -2.89693395  T        0
O        8.11313543       6.98197818      -4.88789304  T        0
O        7.88069013       9.47588699      -5.58173562  T        0
O        6.49265291       9.01363824      -0.49149298  T        0
O        5.95983346      10.84025012      -2.47322896  T        0
O        5.22380419       8.24737661      -2.65788969  T        0
O       15.33499709       9.26949837      -3.82497650  T        0
O       14.43137799      12.31937380      -1.70452343  T        0
O       16.15102444      10.38634290      -0.79014895  T        0
O       13.83195254       9.65651084      -1.65235275  T        0
O       11.42020804       8.97393512      -6.14460457  T        0
O       12.72453015       8.53561296      -3.79304054  T        0
O       11.59668514      10.87024737      -4.19860424  T        0
O       14.40503728       7.14590777      -2.27067288  T        0
O       14.48669932       2.69104755      -2.03722175  T        0
O        9.85619787      12.84659290      -3.59157826  T        0
O       14.93565387      12.95073569      -4.27603207  T        0
O       14.62003316       4.87698283      -0.73072947  T        0
O       16.28688353       2.91729255       0.08422849  T        0
O       16.43772389       6.88766880      -0.71570105  T        0
O       11.31702912      13.02995108      -5.82042811  T        0
O       12.47107359      13.20506192      -3.35938491  T        0
O       14.37695015      14.83999489      -2.34900082  T        0
Si       8.42762913       8.50995474      -4.35598489  T        0
Si       6.37869259       9.27098927      -2.11849566  T        0
Si      14.61752068      10.93216671      -0.90090201  T        0
Si      11.45061259       9.27857957      -4.53392443  T        0
Si      14.11288149       8.60481773      -2.94606979  T        0
Si      14.78067452       3.25380774      -0.52052996  T        0
Si      14.84548435       6.48265671      -0.81546962  T        0
Si      11.31071949      12.47798546      -4.26698066  T        0
Si      14.04371070      13.34369823      -2.94079458  T        0
H        7.07153747       8.87866318      10.98534327  F        0
H       12.25872463      13.00694285       5.79628406  F        0
H       16.63692148       9.14969546       7.98396390  F        0
H        4.05829635      10.79936776       4.41071281  F        0
H        5.06295559      10.84500939       7.26028495  F        0
H        3.12887899       8.92429365       0.49683426  F        0
H        8.21123678      12.90527891       8.50458507  F        0
H       13.54926599       8.42132791      10.11787432  F        0
H       18.17502404      10.93300163       2.66186473  F        0
H       11.43576677      11.60834527       9.31342917  F        0
H        5.53537813      12.95496052       1.09262639  F        0
H       15.58652088      12.95496051       5.53385777  F        0
H       11.61525895       4.01919395       4.45233654  F        0
H       13.73584752       2.53683452       1.54337726  F        0
H        4.34567170       7.30371036       4.24836906  F        0
H        5.18772305       6.48136951       6.94399129  F        0
H        7.92514400       4.01763560       6.85279547  F        0
H       18.37141860       7.12308619       2.89672377  F        0
H        5.99116592       4.00312854       2.66051272  F        0
H       16.04230867       4.00312851       3.96597142  F        0
H        7.84356088       6.72376138      -5.79631577  F        0
H        7.75914502      10.43742179      -5.56699558  F        0
H        6.45001595      11.67065412      -2.32005011  F        0
H        4.52133035       8.52501985      -3.25073397  F        0
H       16.04398914       8.93133647      -4.41074452  F        0
H       16.97340651      10.80641058      -0.49686596  F        0
H       12.20788617       8.97653229      -6.69697499  F        0
H       14.28051860       1.85859718      -2.50342312  F        0
H        9.00479756      13.03623234      -4.02623335  F        0
H       15.75661379      12.42699387      -4.24840076  F        0
H       17.11292418       3.38174117      -0.14604398  F        0
H       17.11292418       6.48361095      -0.14604398  F        0
H       12.09335996      12.92196996      -6.39742946  F        0
H       14.11111957      15.72757569      -2.66054442  F        0
Fe      10.18452746       9.04809228       2.57656672  T        0
Fe      12.57043639       8.87226223       0.11554223  T        1
O       10.74584302       8.20536960       0.85188978  T        2
O       10.81639083       9.69124662       0.64486256  T        3
