139
Lattice="20.102 0.0 0.0 0.0 19.731 0.0 0.0 0.0 13.253" Properties=species:S:1:pos:R:3:move_mask:L:1:tags:I:1 i=77 E=-3472.0240129048 regions="_JSON [\"Active\"]" n_terminators=34 energy=-927.845210157198 pbc="F F F"
O       10.02621442      18.90201366       4.04600790  T        0
O        9.93065377      10.58378279       3.88318879  T        0
O        2.21569247      11.33048688       3.98882641  T        0
O        2.29772074      18.24109971       3.94447910  T        0
O       12.13549597      18.47695322       2.53613172  T        0
O       12.09668945      11.00884108       2.48870410  T        0
O       11.88236156      17.26626030       4.93944610  T        0
O       11.77782698      12.15778765       4.94921226  T        0
O        8.55065723       9.60191760       8.09456364  T        0
O       12.45943288      19.94089153       4.67589225  T        0
O       12.30348233       9.49592330       4.61982375  T        0
O        3.76554809      10.69408657       6.05445113  T        0
O        3.81101914      19.02582026       5.99112097  T        0
O        6.14416370      19.01211140      10.63617508  T        0
O        3.00642267       8.82197316       4.21187757  T        0
O        6.12094624      10.59133490      10.67752577  T        0
O       17.05476527      10.63421599       9.17444039  T        0
O       17.09826942      18.95749295       9.09816396  T        0
O        4.84253730      10.70300608       3.65195870  T        0
O        4.93615971      18.73118183       3.62351522  T        0
O        4.03504517      12.23567712       8.18367545  T        0
O        4.24561175      17.39336625       8.04195563  T        0
O       14.33938460      17.07966448      12.08938074  T        0
O       14.39685353      12.51566396      12.07459421  T        0
O        6.04288064      10.57709610       7.50309944  T        0
O        6.04849139      19.26974427       7.43553456  T        0
O        3.73398258       9.52744546       8.40251076  T        0
O        5.89423285      10.15340527       1.23017043  T        0
O        3.70587628      20.08992494       8.40266034  T        0
O        8.06580784      12.24348923       8.06338248  T        0
O        7.84307924      17.28062240       7.94400079  T        0
O        8.12443642      10.88651247       5.83840142  T        0
O        8.08876822      18.59336021       5.85768419  T        0
O        7.40228887      11.14183047       3.28500848  T        0
O        7.52746247      18.47903941       3.29413648  T        0
O        8.00354324       8.73939279       4.28285576  T        0
O       12.02454768      10.59339480       9.20628288  T        0
O       12.05549781      19.04437022       9.39228761  T        0
O        5.63799535      12.68080032       2.01847203  T        0
O        6.01003048      16.90220980       1.90009703  T        0
O       16.05701997      17.00463263       4.53125971  T        0
O       16.15826575      12.55507016       4.54696558  T        0
O       10.09667185      17.11769041       9.60307350  T        0
O       10.03582012      12.40798955       9.84837893  T        0
O        7.38656567      16.58216586      10.63138330  T        0
O        7.53505779      12.91301292      10.61357557  T        0
O       17.85082955      13.14242868       9.41694789  T        0
O       17.85359258      16.45769032       9.41151572  T        0
O        8.84167823      14.61963025       8.88866690  T        0
O        6.04159645      17.43133088      12.82751411  T        0
O        6.17658172      12.21004007      12.82365594  T        0
O       16.58415971      12.47813434       7.21702988  T        0
O       16.45883379      17.09629946       7.21932208  T        0
O        4.70444369      16.82065687      10.60291397  T        0
O        4.86643108      12.92268793      10.58862745  T        0
O       15.19636722      12.56622925       9.49471945  T        0
O       15.21850872      17.05978774       9.55206789  T        0
O       16.06452310      14.78170051       5.92353760  T        0
O       14.14918712      12.96762267       6.35862084  T        0
O       14.04707392      16.50658124       6.28578283  T        0
O       11.90755928      14.86171402       6.14087286  T        0
O       11.44406265      12.81348336       7.67971290  T        0
O       11.73660211      17.10076250       7.54023528  T        0
O        2.18942785      16.68627030       9.55553888  T        0
O        2.26009908      13.32843322       9.97880864  T        0
O       12.64336324      12.97186828      10.05717722  T        0
O       12.67060737      16.58667973       9.98873061  T        0
O        4.04834081      14.85503742       8.90840777  T        0
O       14.43708133      14.79573492      10.79651451  T        0
Si      11.64372444      18.63251834       4.09119136  T        0
Si      11.54148679      10.85332915       4.03473476  T        0
Si       3.47297560      10.38486355       4.47492719  T        0
Si       3.56057277      19.19489765       4.38650098  T        0
Si       4.41131666      10.76685137       7.54868008  T        0
Si       4.43037960      18.92385793       7.49787883  T        0
Si       7.65040727      10.80036326       7.38343573  T        0
Si       7.59985931      18.83445410       7.46192664  T        0
Si       8.38657031      10.34926579       4.31470812  T        0
Si       8.48103266      19.23810078       4.36356634  T        0
Si       5.94507401      11.15754518       2.54323794  T        0
Si       6.07817397      18.41888864       2.50681988  T        0
Al       8.55263186      16.37440491       9.37028311  T        0
Si       8.59089968      13.04633124       9.38765763  T        0
Si       6.11997449      17.42614084      11.17653595  T        0
Si       6.17773491      12.16986947      11.18035015  T        0
Si      16.64855301      12.19684893       8.82234012  T        0
Si      16.64022659      17.39551807       8.82106529  T        0
Si      15.70869702      13.17756125       6.00991169  T        0
Si      15.65900599      16.35514448       5.99238772  T        0
Al      12.46535478      13.13172299       6.18933740  T        0
Si      12.43199893      16.41927058       6.22940450  T        0
Si      11.53062001      12.16214079       9.19918637  T        0
Si      11.59685743      17.47231879       9.14514174  T        0
Si       3.78911388      16.43400676       9.30406136  T        0
Si       3.79503645      13.30665464       9.39735199  T        0
Si      14.17698083      13.20040582      10.59253018  T        0
Si      14.16808190      16.39319470      10.60153081  T        0
O        8.58979495      19.94332455       8.15088567  T        0
O        3.17829836      20.73904780       3.94883937  T        0
O        6.03079566      19.47722270       1.24482421  T        0
O        8.17605101      20.84381796       4.49054813  T        0
H        1.81269882      11.30123319       3.09859993  F        0
H        1.81269882      18.29482316       3.09859994  F        0
H       13.03074803      18.74401529       2.26762503  F        0
H       13.03074804      10.85204106       2.26762503  F        0
H        8.32625906       8.98649408       8.81306681  F        0
H       12.34310542      20.30287261       5.56688324  F        0
H       12.34314048       9.29328245       5.56696388  F        0
H        6.59189912      19.77694965      11.03822749  F        0
H        3.60112680       8.06005012       4.30646574  F        0
H        6.59189033       9.81912404      11.03827922  F        0
H       16.64303307       9.81912404       8.84117322  F        0
H       16.64304187      19.77694965       8.84122497  F        0
H       14.40563884      18.04556895      12.19637069  F        0
H       14.40563885      11.55048737      12.19637067  F        0
H        4.11249823       9.08086468       9.18193973  F        0
H        5.72719027       9.20254625       1.33756862  F        0
H        4.11250309      20.51523557       9.18186357  F        0
H        8.66651872       8.12235896       3.93953912  F        0
H       11.52310774       9.76092419       9.21110646  F        0
H       11.52310955      19.83515307       9.21116341  F        0
H        5.53537813      12.95496052       1.09262639  F        0
H        5.53537813      16.64109584       1.09262638  F        0
H       15.87290964      17.87210703       4.12309272  F        0
H       15.87290964      11.72394929       4.12309273  F        0
H       18.05303808      13.25020103      10.35989921  F        0
H       18.05303809      16.34585533      10.35989921  F        0
H        5.86807409      16.61444052      13.33116226  F        0
H        5.86807409      12.98161584      13.33116226  F        0
H        1.73086688      16.98843832      10.35624453  F        0
H        1.73086689      12.60761804      10.35624453  F        0
H        8.32625906      20.60985804       8.81306681  F        0
H        3.60112680      21.53630199       4.30646574  F        0
H        5.72719026      20.39380587       1.33756863  F        0
H        8.66651872      21.47399316       3.93953912  F        0
Fe      10.06984015      14.28531360       7.12067358  T        0
Fe       7.88297176      16.45884546       6.00458440  T        1
O        7.58147701      14.62246993       5.70452878  T        2
O        9.03788673      14.86755424       5.55931623  T        3
