142
Lattice="20.102 0.0 0.0 0.0 19.731 0.0 0.0 0.0 13.253" Properties=species:S:1:pos:R:3:move_mask:L:1:tags:I:1 i=77 E=-3472.0240129048 regions="_JSON [\"Active\"]" n_terminators=30 energy=-979.0336669243395 pbc="F F F"
O       10.07988060       8.74570300       9.49003534  T        0
O        0.01776696       8.22986099      10.94374950  T        0
O       10.31482909      11.11399218       3.72958927  T        0
O        2.26527318      10.64827525       3.42597185  T        0
O        7.66323679       8.85278973      10.58319678  T        0
O       12.94992939      11.36171104       3.09017415  T        0
O        8.43410109       2.78651900       8.30812602  T        0
O        2.21686332      12.56424219       1.69266169  T        0
O        8.17410210       7.06371331       8.62462194  T        0
O       12.03859451      12.38512859       5.29871295  T        0
O        1.53782483      10.03492723       0.92331368  T        0
O        7.93561192       9.62737969       8.05397715  T        0
O       12.14558111       9.73456486       5.09951763  T        0
O        3.57649814      11.00485866       5.70830951  T        0
O        6.15534748       9.11983589      12.79809561  T        0
O        4.03628197       8.83105905       4.21993741  T        0
O        6.05406167      10.95099117      10.86128497  T        0
O        4.92740988      11.15074169       3.39295565  T        0
O        5.02010649       8.53688692      10.45012038  T        0
O        4.13696573      12.41532910       8.25023462  T        0
O        5.90835138       7.30922699       1.50557854  T        0
O        6.16798787      10.80503391       6.71505389  T        0
O        3.97444819       8.93223841       0.73501129  T        0
O       14.26788214       8.85283390       6.57962801  T        0
O        4.34276230       9.47886577       8.05747844  T        0
O        6.30580812       9.95823244       1.43283970  T        0
O        8.08338798      12.35513136       7.80817834  T        0
O        1.82104193       7.39103271       1.06409049  T        0
O       12.48172872       7.13297787       5.42538058  T        0
O        8.66284289      10.77699040       5.74708117  T        0
O        1.96232828       9.20477476      12.52482882  T        0
O       11.89264884       8.62882417       7.53948798  T        0
O        7.63100204      11.26198430       3.34098327  T        0
O        2.42687771       8.83915529       9.92865010  T        0
O       12.61877335       8.70982523      10.17667048  T        0
O        8.82014740       8.94243193       3.75937814  T        0
O        0.81203219      10.78363656      10.68277719  T        0
O       11.49456065      10.84877361       8.92403033  T        0
O        4.05871959       2.68416768       8.66049585  T        0
O        6.29579503      12.64971806       1.61288771  T        0
O        3.80666901       6.96981173       8.62576020  T        0
O       -0.16832819       6.49287566       2.67311570  T        0
O       10.13252814      13.12496992       9.28649511  T        0
O       10.17095173       6.66656470       4.12655778  T        0
O        2.33794836       6.82484433       3.61061030  T        0
O        7.71002529      12.98882354      10.36143302  T        0
O       12.40775475       7.04825220       2.74066914  T        0
O        8.19999473      14.85356222       8.44819913  T        0
O        1.80242794       4.88575925       1.80240010  T        0
O       12.13223913       4.78872081       4.14867237  T        0
O        3.49741766       6.91938472       5.97655607  T        0
O        6.60418456      12.87623313      12.70865908  T        0
O        3.59812019       2.41049611       6.04401645  T        0
O        4.99807302       6.40519969       3.86239087  T        0
O        5.05082628      13.38688234      10.58037294  T        0
O        4.37072883       4.72671537       7.19128544  T        0
O        5.92026699       6.86446478       7.04619883  T        0
O        6.13697023       2.71888104       6.85914410  T        0
O       14.21960368      13.86446209       6.03566413  T        0
O        7.90059662       4.72743488       6.66780926  T        0
O       11.81678348      14.91859113       5.97466974  T        0
O        8.23204932       7.48149369       5.85138614  T        0
O        1.28987499      12.44445366      12.65107090  T        0
O        8.52054863       2.25687440       5.69728437  T        0
O       12.41653450      13.06422055       7.83812690  T        0
O        7.63423010       6.58907675       3.40423497  T        0
O        2.47012481      12.89439516      10.26986999  T        0
O       12.44459746      12.82578792      10.47540453  T        0
O        3.58101916      14.94376758       8.96843507  T        0
O        6.16712098       4.77182364       2.09650879  T        0
Si       1.45285687      11.16579330       2.11139945  T        0
Si       8.49936423       8.52232658       9.21239866  T        0
Si      11.85467875      11.12616387       4.29054246  T        0
Si       3.69260625      10.44414001       4.20723463  T        0
Si       6.22896816       9.35795433      11.19135423  T        0
Al       4.41887946      11.08610206       7.21233469  T        0
Si       5.59157767       8.68678359       0.70747244  T        0
Si       7.76808134      10.96972537       7.07640546  T        0
Si       2.40100009       8.75055447       0.37629116  T        0
Si      12.70019743       8.59420831       6.12667442  T        0
Si       8.84552791      10.52234012       4.12980090  T        0
Si       1.29145840       9.26238194      11.03825123  T        0
Si      11.57015069       9.22486926       9.02488800  T        0
Si       6.25605489      11.23833042       2.45180780  T        0
Si       3.86892005       8.47928832       9.28829721  T        0
Si       1.43820713       6.40609394       2.30367772  T        0
Si       8.54881776      13.35723987       9.01452554  T        0
Si      11.77998677       6.39584096       4.12669057  T        0
Si       3.70062208       7.25063104       4.38536132  T        0
Si       6.33596349      12.54297346      11.12047232  T        0
Si       4.36312739       6.32823278       7.22630438  T        0
Si       4.58054981       3.10963453       7.16815208  T        0
Al       7.68990050       6.37075466       7.09560956  T        0
Si       7.73907855       3.13898131       6.85891259  T        0
Si      12.62691186      13.52636504       6.28492022  T        0
Si       8.72103474       7.40817087       4.30668886  T        0
Si       1.13148441      12.35785767      11.00524568  T        0
Si      11.60786946      12.45369434       9.11340696  T        0
Si       6.18459261       6.28646827       2.72998971  T        0
Si       3.81806107      13.39960709       9.48388474  T        0
O        1.52742977       9.82590235      15.17501850  T        0
O        5.95494594       7.27104295      14.59992219  T        0
O        3.94090696       9.10556517      14.29254979  T        0
O        6.25960265       9.80789479      15.43301176  T        0
O        1.86158976       7.32244958      14.29767818  T        0
Si       5.55442051       8.83741424      14.29626417  T        0
Si       2.32962478       8.88276032      14.08252704  T        0
O        6.14838114       8.47257093      -0.81808307  T        0
O        2.25070574       8.66295135      -1.25484308  T        0
O       -0.13298468      11.47961958       2.44300926  T        0
O       -0.12314949      13.26842973      10.45853451  T        0
H       -0.89571882       8.42972886      10.66739018  F        0
H       13.03074804      10.85204106       2.26762503  F        0
H        8.32487049       1.96348467       8.80281458  F        0
H        2.20758188      13.00694286       0.83020008  F        0
H       15.03932990       8.88569483       5.99268334  F        0
H       13.54926599       8.42132791      10.11787432  F        0
H        4.22937586       1.85859719       9.12987557  F        0
H        5.53537813      12.95496052       1.09262639  F        0
H       -0.70903753       7.30425969       2.68512250  F        0
H       13.35632228       7.06085325       2.51220488  F        0
H        8.48702655      15.71151028       8.80063176  F        0
H        1.56411620       4.01919395       2.17414761  F        0
H       11.61525895       4.01919395       4.45233654  F        0
H        5.86807409      12.98161584      13.33116226  F        0
H        3.68470477       2.53683452       5.08310689  F        0
H       14.91456245      13.24933472       6.30897701  F        0
H       12.17714149      15.71306863       6.40017283  F        0
H        2.04221098      12.92196288      13.02389096  F        0
H        8.61892989       2.44869843       4.74740482  F        0
H       13.32025657      13.20375310      10.31771692  F        0
H        4.05997682      15.72757570       9.28699687  F        0
H        5.99116592       4.00312854       2.66051272  F        0
H        1.72488369      10.74421016      15.43958265  F        0
H        6.01932001       6.80354450      15.45091456  F        0
H        5.93864452      10.64983954      15.80845558  F        0
H        1.83990596       6.82542533      15.13110093  F        0
H        6.58577874       9.14969547      -1.35751146  F        0
H        1.54448592       9.14594745      -1.70877228  F        0
H       -0.90389482      10.88061926       2.50078840  F        0
H       -1.04605969      13.03623234      10.65268580  F        0
Fe       6.12255619       8.80173301       7.04624560  T        1
