136
Lattice="19.123 0.0 0.0 0.0 14.277 0.0 0.0 0.0 7.5465" Properties=species:S:1:pos:R:3:move_mask:L:1:tags:I:1 i=128 E=-2603.9155142701 regions="_JSON [\"Active\"]" n_terminators=34 energy=-900.2548337901404 pbc="F F F"
O       15.78934277       8.45524900       5.55823006  T        0
O       13.02904878       1.12922650       1.47907399  T        0
O       15.79586359       5.80315645       5.56316765  T        0
O       13.04709397      13.14607785       1.46627720  T        0
O       12.70895640      13.19993335       5.48674263  T        0
O       15.64384194       5.80961397       1.73514898  T        0
O       12.71278324       1.08207381       5.49371713  T        0
O       15.60943288       8.44523832       1.72997892  T        0
O       16.99240326      10.94229782       6.22044490  T        0
O       11.89406800       3.44421045       2.51608452  T        0
O       17.05411014       3.29055481       6.22808322  T        0
O       11.86624741      10.85821265       2.51142133  T        0
O       11.49028273      10.84906445       5.16385722  T        0
O       17.00299875       3.61584726       1.08288872  T        0
O       11.53849941       3.44895986       5.16837634  T        0
O       16.94497237      10.63031083       1.05849874  T        0
O       16.29778966      10.16503633       3.61294955  T        0
O       12.45404259       3.24851811      -0.04528263  T        0
O       16.29461707       4.10887871       3.61424097  T        0
O       12.46933021      11.01814454      -0.04386470  T        0
O       14.12242444      10.92291121       5.52066635  T        0
O       14.43890408       3.37777976       1.80130553  T        0
O       14.17681050       3.32545036       5.56650203  T        0
O       14.41117642      10.87399603       1.84795510  T        0
O       11.59903199       8.50776519       3.82063168  T        0
O       17.34064845       1.11480799       0.03640275  T        0
O       11.55761738       5.78532148       3.82741092  T        0
O       17.31739369      13.13969889       0.03752332  T        0
O        9.50124668      10.18719789       3.39562135  T        0
O        9.50603377       4.03385766       3.42794366  T        0
O       13.49541757       7.12326449       5.10706616  T        0
O       13.40216648       7.10607631       2.43635970  T        0
O       14.10344880       7.09976063      -0.09672285  T        0
Al      15.66325806      10.25218898       5.35360480  T        0
Si      12.94268754       2.77976657       1.45749559  T        0
Al      15.72289586       3.99226217       5.37143289  T        0
Si      12.93923739      11.49664538       1.46230361  T        0
Si      12.72583087      11.60339534       5.95748727  T        0
Si      15.80922018       4.19113794       2.02959446  T        0
Si      12.75465747       2.67587687       5.97139798  T        0
Si      15.78474381      10.05524216       2.03492518  T        0
Si      11.10151893      10.08838695       3.75213773  T        0
Si      17.56875171       2.73930687      -0.20436508  T        0
Si      11.10818961       4.19062158       3.76083926  T        0
Si      17.54676635      11.52268424      -0.19515052  T        0
Si      14.88761366       7.12955660       5.96845420  T        0
Si      14.68174664       7.11891520       1.44260640  T        0
Si      12.48933808       7.13270785       3.80723601  T        0
O       21.65995720      11.08149387       8.93107777  T        0
O       21.11631861      13.06327130       7.18088412  T        0
O       19.18937601       3.00851531       7.94217408  T        0
O       19.24128498      11.28075440       7.63501145  T        0
O       24.06793223       6.96842508       7.60763490  T        0
Si      20.88217215      11.46897405       7.51296094  T        0
O       22.96880390       8.47241480       5.63415248  T        0
O       22.49240528       5.85760106       5.63592728  T        0
O       22.43278854       8.38581906       1.54748523  T        0
O       21.50339213      10.59069303       6.24234731  T        0
O       21.52300456      10.80431853       1.14071042  T        0
O       22.23472249      10.12097301       3.63347410  T        0
O       24.03697911      10.98126913       5.21365428  T        0
O       24.19047203      10.32559719       1.67692942  T        0
O       20.90178122      13.18452112      -0.01510553  T        0
O       19.18364733       3.03175488      -0.39574357  T        0
O       19.17228191      11.27009038      -0.19713314  T        0
O       25.04114753       6.78045998       5.16422763  T        0
Si      22.67828819      10.03823521       5.21925412  T        0
Si      22.61259167       9.95382842       2.03132617  T        0
Si      20.80430192      11.54419488      -0.15145085  T        0
Si      23.62554247       7.01359741       6.00352710  T        0
O       21.50483176      11.07951556      -1.57612378  T        0
O       12.83467767       1.20945008       9.77393108  T        0
O       12.84908397      13.05297162       9.77677752  T        0
O       15.54371003       5.80736297       9.65764780  T        0
O       15.56721498       8.47585411       9.62805437  T        0
O       11.51642499       3.52491076       9.91828060  T        0
O       11.58377624      10.69571965       9.90102825  T        0
O       16.78345038       3.52789111       8.85633563  T        0
O       16.89672654      10.71991185       8.87084441  T        0
O       16.21244921      10.45120766      11.37878922  T        0
O       12.51606058       2.79711271       7.59318448  T        0
O       16.19604882       3.81130776      11.38053193  T        0
O       12.51993491      11.48188112       7.58348529  T        0
O       14.20885907       3.52295871       9.54549295  T        0
O       14.28756318      10.79412562       9.47951601  T        0
O       17.32836756       1.07458574       7.79240512  T        0
O       17.31708048      13.17207390       7.76854990  T        0
O       13.18820677       7.16636369       9.84048803  T        0
O       14.52667600       7.12917313       7.56055601  T        0
Si      12.79753131       2.76652806       9.21049043  T        0
Si      12.83577169      11.50128345       9.19539869  T        0
Si      15.67589372       4.17531750       9.85921654  T        0
Si      15.72937095      10.10331522       9.83911856  T        0
Si      17.58736466       2.71801676       7.66011480  T        0
Si      17.59991341      11.53801274       7.61043467  T        0
Si      14.71194000       7.14320481       9.19550258  T        0
O       16.82103827      11.04147978      -1.61109395  T        0
O       16.75960811       3.19157384      -1.58420813  T        0
H       13.50938118       0.51971906       2.07492992  F        0
H       13.50958039      13.75682243       2.07498241  F        0
H       13.51084140      13.75504172       5.44776650  F        0
H       13.50975252       0.52161770       5.44778410  F        0
H       12.76076393       2.97683097      -0.93375646  F        0
H       12.76174962      11.29928001      -0.93393629  F        0
H       16.56036088       0.51548555      -0.00076213  F        0
H       16.56020813      13.76127004      -0.00066979  F        0
H        8.59739021      10.07362933       3.76217937  F        0
H        8.59637561       4.20354031       3.76204115  F        0
H       14.60982961       7.13673871      -0.92783774  F        0
H       22.00483182      10.29715766       9.41435165  F        0
H       21.68557806      13.76129914       7.54737584  F        0
H       20.08726577       2.93486642       7.54597012  F        0
H       23.63198861       7.14016697       8.47499567  F        0
H       22.48364390       4.89097090       5.45283813  F        0
H       23.06957714       7.66254159       1.68550051  F        0
H       24.76092223      11.11473374       5.84604825  F        0
H       24.75845825      11.12041654       1.68709931  F        0
H       21.68557806      13.76129914       0.00087584  F        0
H       20.08726577       2.93486642      -0.00052988  F        0
H       25.36244212       7.13797332       4.30618001  F        0
H       22.00608000      10.28902905      -1.85963567  F        0
H       13.50938118       0.51971906       9.62142992  F        0
H       13.50958039      13.75682243       9.62148241  F        0
H       11.39369377       3.98884644      10.77146895  F        0
H       11.39439525      10.28733182      10.77116771  F        0
H       15.92688062      10.11457984      12.25007275  F        0
H       15.92754156       4.15729643      12.25107281  F        0
H       16.56036088       0.51548555       7.54573787  F        0
H       16.56020813      13.76127004       7.54583021  F        0
H       12.88235039       7.13795337      10.76981689  F        0
H       16.24044124      10.28985035      -1.86101282  F        0
H       16.23925818       3.97887666      -1.85852020  F        0
Fe      17.36623908       5.76274235       4.09688445  T        0
Fe      17.52001260       8.67402446       4.19414362  T        1
O       18.72275168       7.15378152       4.71060431  T        2
O       18.48569990       7.18075428       3.20531377  T        3
