144
Lattice="20.102 0.0 0.0 0.0 19.731 0.0 0.0 0.0 13.253" Properties=species:S:1:pos:R:3:move_mask:L:1:tags:I:1 i=77 E=-3472.0240129048 regions="_JSON [\"Active\"]" n_terminators=32 energy=-981.5588620843972 pbc="F F F"
O       10.16560945       8.68366468       9.24344203  T        0
O        9.95708906      18.72756980       4.06767805  T        0
O       10.01669438      11.50392769       3.90467550  T        0
O        2.18176555      11.36135476       3.99570873  T        0
O        7.75927773       8.54555449      10.49371901  T        0
O       12.10709207      18.55743667       2.52205847  T        0
O       12.47620853      11.29589767       2.83917874  T        0
O        8.16207801       7.30786479       8.19661378  T        0
O       12.11360666      17.46559964       4.98864643  T        0
O       12.13373534      12.65732625       5.09650771  T        0
O        8.10090398      10.01258681       8.31941952  T        0
O       12.18637974      20.15680370       4.62281026  T        0
O       11.79308814       9.99556872       5.11875213  T        0
O        3.43423821      10.63598638       6.17069544  T        0
O        6.59838905       8.77356978      12.82254855  T        0
O       13.46642692      10.91805062       0.41027455  T        0
O        3.42351061       8.98253842       4.01429519  T        0
O        6.22334463      10.66177106      10.81526447  T        0
O       13.79842588       9.07335258       2.45537253  T        0
O        4.90738207      11.19721762       4.06078212  T        0
O        5.05933621       8.34784858      10.63425677  T        0
O       15.16000008      11.39582749       2.39697659  T        0
O        3.90651525      12.35960802       8.13784799  T        0
O        5.86111160       7.32787033       1.26977659  T        0
O        5.87028507      10.83822600       7.16916416  T        0
O        3.99405544       8.88740808       0.04794460  T        0
O        5.83196069      19.29536849       7.52545283  T        0
O       14.22127665       9.30124278       5.67421122  T        0
O        3.92351523       9.73909121       8.62745455  T        0
O        5.68845911       9.92791067       1.90596883  T        0
O        7.73258591      12.62939888       7.85760531  T        0
O        7.74616481      17.46687545       7.96768281  T        0
O       12.29680208       7.38142849       5.30135824  T        0
O        8.17311860      10.94808589       5.84541042  T        0
O        7.88476303      18.88819340       5.75742587  T        0
O       12.22398923       8.81888293       7.48210176  T        0
O        7.46475921      11.40555767       3.25390095  T        0
O        2.41971610       8.10053735      10.13069537  T        0
O        7.51838901      18.19525425       3.20796019  T        0
O       12.57972255       8.45713773      10.11993613  T        0
O        8.73768271       8.74703233       3.88940541  T        0
O       11.77204731      10.83914864       9.10896665  T        0
O       11.88490459      19.02971905       9.62258311  T        0
O        5.44294324      12.69062763       2.01998114  T        0
O        4.18247491       7.04381181       8.53031847  T        0
O        9.97342406      17.10110664       9.43003094  T        0
O        9.92281031      12.71223885       9.66763395  T        0
O       10.24983564       6.56393887       3.70305636  T        0
O        7.70898817      16.92225106      10.63414499  T        0
O        2.36383164       6.51912905       3.80880168  T        0
O        7.22671993      13.15169724      10.70660325  T        0
O       12.78498058       6.63179716       2.82116621  T        0
O        8.34589803      15.03875870       8.73665311  T        0
O       12.07714575       4.83923480       4.70583994  T        0
O        3.69783718       7.20234446       5.95836107  T        0
O        5.93209786      12.13276283      12.88400705  T        0
O       13.84308184       7.44442791       0.46457446  T        0
O        5.06749530       6.88490087       3.73277368  T        0
O        4.60594919      12.80183596      10.67021658  T        0
O       15.47848533       6.92956175       2.49374241  T        0
O        3.89044808       4.81944006       7.01410303  T        0
O        6.08939820       6.38549397       6.78887845  T        0
O       14.14062905      13.20363108       6.89106070  T        0
O       14.22463723      16.95807436       6.60599363  T        0
O        8.12672826       4.77062933       7.43669400  T        0
O       12.35658993      15.07145705       6.07345663  T        0
O        8.44596698       6.74073636       5.63172132  T        0
O       11.67318584      13.07743798       7.70719529  T        0
O       11.82266960      17.25829136       7.58531738  T        0
O        7.64163796       6.45163387       3.11675656  T        0
O        2.12609701      13.38420895       9.91691307  T        0
O       12.35835209      13.15907906      10.35861425  T        0
O       12.36655039      16.45367185      10.15099425  T        0
O        4.15656104      14.84291268       8.88539775  T        0
O        5.77633043       4.80665005       2.14237041  T        0
Si       8.54733369       8.63534778       9.06411011  T        0
Si      11.58882588      18.71631176       4.07403090  T        0
Si      11.63486218      11.35955985       4.23530818  T        0
Si       3.48912401      10.53159818       4.54807889  T        0
Si       6.39411011       9.08871744      11.22616183  T        0
Si      13.74027084      10.64701556       2.00729863  T        0
Si       4.29073608      10.89166752       7.53735923  T        0
Si       5.50666207       8.83150063       0.71411678  T        0
Si       7.47300561      11.09130084       7.28586357  T        0
Si       7.43678520      18.94749362       7.31007496  T        0
Si      12.64601609       8.85052863       5.91521269  T        0
Al       8.60575954      10.39198799       4.26300697  T        0
Si       8.38874148      19.15203688       4.21866226  T        0
Si      11.68053156       9.22225003       8.97689835  T        0
Si       5.88704087      11.29284567       2.76289417  T        0
Si       3.90824628       8.33877432       9.47499782  T        0
Si       8.44669269      16.63446405       9.19626227  T        0
Al       8.34735843      13.32000765       9.41896046  T        0
Si      11.81946885       6.35475343       4.11719037  T        0
Si       3.64362408       7.39392797       4.34779628  T        0
Si       6.03214513      12.21653285      11.24429542  T        0
Si      13.97554131       7.49270187       2.09882739  T        0
Si       4.49038381       6.34609694       7.09634902  T        0
Si       7.70105048       6.30675929       7.00776596  T        0
Si      12.57745748      13.49120406       6.43236285  T        0
Si      12.62849652      16.66375974       6.30495542  T        0
Si       8.76413201       7.15009053       4.08721965  T        0
Si      11.43011888      12.43542857       9.21478296  T        0
Si      11.54038100      17.47729869       9.18266017  T        0
Si       6.10083073       6.36347766       2.57997412  T        0
Si       3.70363679      13.34615000       9.42601051  T        0
O        8.37466387      20.13677059       7.96580421  T        0
O        8.09092374      20.71081418       3.77782306  T        0
O        6.59744075       9.32275537      -0.40770563  T        0
H        1.81269882      11.30123319       3.09859993  F        0
H       13.03074803      18.74401529       2.26762503  F        0
H       12.34310542      20.30287261       5.56688324  F        0
H        6.01931354       8.91222751      13.59787507  F        0
H       14.08297195      10.81847671      -0.34490677  F        0
H       15.58095515      11.20568437       3.25070227  F        0
H        3.12887899       8.92429365       0.49683426  F        0
H        5.06295559      18.75104696       7.26028496  F        0
H       15.03932990       8.88569483       5.99268334  F        0
H        1.92726146       8.79770260      10.59110356  F        0
H        6.55301950      18.28668004       3.13509397  F        0
H       13.54926599       8.42132791      10.11787432  F        0
H       11.52310955      19.83515307       9.21116341  F        0
H        5.53537813      12.95496052       1.09262639  F        0
H        6.74596320      16.92620537      10.74076342  F        0
H        2.04924741       6.48050321       2.89306910  F        0
H       11.61525895       4.01919395       4.45233654  F        0
H        5.86807409      12.98161584      13.33116226  F        0
H       14.23421140       6.74908840      -0.07819396  F        0
H       15.83774429       6.73639486       3.37716865  F        0
H        4.37526294       4.01828352       7.26036481  F        0
H       14.91456245      13.24933472       6.30897701  F        0
H       14.91456244      16.34672163       6.30897701  F        0
H        7.92514400       4.01763560       6.85279547  F        0
H        1.73086689      12.60761804      10.35624453  F        0
H       13.32025657      13.20375310      10.31771692  F        0
H       13.32025658      16.39230324      10.31771692  F        0
H        4.05997682      15.72757570       9.28699687  F        0
H        5.99116592       4.00312854       2.66051272  F        0
H        8.32625906      20.60985804       8.81306681  F        0
H        8.66651872      21.47399316       3.93953912  F        0
H        6.58577874       9.14969547      -1.35751146  F        0
Fe       8.06768037      14.41462383       6.82394535  T        0
Fe       8.56152031      12.99957033       4.03180751  T        1
O        8.23507928      14.48554827       5.01398248  T        2
