148
Lattice="20.102 0.0 0.0 0.0 19.731 0.0 0.0 0.0 13.253" Properties=species:S:1:pos:R:3:move_mask:L:1:tags:I:1 i=77 E=-3472.0240129048 regions="_JSON [\"Active\"]" n_terminators=30 energy=-1025.915835392932 pbc="F F F"
O       10.29524829       8.49647752       9.75138995  T        0
O       10.02700037      11.50264372       3.80778765  T        0
O        2.34584246      11.40985113       4.02363907  T        0
O        7.75547341       8.47440855      10.58440796  T        0
O        8.62473317       2.78660549       8.39428876  T        0
O        1.67559402      12.66812650       1.57573215  T        0
O        8.40548301       7.05679471       8.46918612  T        0
O        2.33824279       9.83125268       1.67339842  T        0
O        8.49258608       9.73761134       8.27667806  T        0
O        3.87445936      11.10571235       6.23035833  T        0
O        6.54779196       9.33641193      12.89049981  T        0
O        3.22863080       9.00595535       4.59811577  T        0
O        6.84330432      10.83570669      10.65444212  T        0
O        3.11273242       0.81801331       4.15883734  T        0
O        4.92517610      10.74118200       3.74864716  T        0
O        5.08070178       8.74632481      10.70133558  T        0
O        6.20868621       2.49815025       1.20656501  T        0
O        4.78157689      12.53143207       8.35882633  T        0
O        6.25538900       7.26011593       1.01765436  T        0
O        6.24866902      10.67347170       7.30413872  T        0
O        4.03227409       8.52805493       0.26181933  T        0
O        3.98956975       9.95614299       8.59479955  T        0
O        5.82304143       9.84629294       1.52882582  T        0
O        2.11417512       2.54313133       1.01389401  T        0
O        8.35894108      12.40530097       7.68582266  T        0
O        1.91007807       7.25641768       1.20898548  T        0
O        8.39349781      10.66150736       5.79726934  T        0
O        7.55566393      10.94714440       3.29226521  T        0
O        2.50363097       8.23221383      10.05102376  T        0
O        9.23230788       8.94960806       3.94863048  T        0
O        8.40123941       0.76177782       3.64840953  T        0
O        4.05924580       2.67103053       8.63360267  T        0
O        5.84798022      12.48568803       1.92087488  T        0
O        4.37460813       7.29858099       8.53595833  T        0
O       -0.07584266       6.98666301       3.01147888  T        0
O        0.20881528       2.51065192       3.00740130  T        0
O       10.42616053       2.51264071       3.74835758  T        0
O       10.20945742       6.47056117       3.70892540  T        0
O        2.33674462       6.59415951       3.79761713  T        0
O        2.67735824       3.24319497       3.60406943  T        0
O        1.28269742       4.82695522       2.05905294  T        0
O        3.86511861       6.82020836       5.95296549  T        0
O        3.88982937       2.75446471       5.94911521  T        0
O        4.80287244       7.42334741       3.38574718  T        0
O        5.25619904       2.43557508       3.70862680  T        0
O        6.01654306      14.90827680       1.05410945  T        0
O        4.64172601       4.86214619       7.47610503  T        0
O        6.33780713       6.84668999       6.81322086  T        0
O        3.89038984      13.42598759       0.30969688  T        0
O        6.30462010       2.82821253       7.05549414  T        0
O        1.65194419      14.89889503       0.00918574  T        0
O        8.09143060       4.86796687       6.93958535  T        0
O        8.80210210       7.20935276       5.87776884  T        0
O        8.59681083       2.54164082       5.72557740  T        0
O        7.59467301       6.86281021       3.52091520  T        0
O        7.79843109       3.21470719       3.27138704  T        0
O        5.80877743       4.79586921       2.55410893  T        0
Al       1.43112994      11.24047980       2.51826848  T        0
Si       8.72651107       8.45459542       9.26017530  T        0
Si       3.54502795      10.64621049       4.72293437  T        0
Si       6.52218718       9.32750767      11.24356048  T        0
Si       4.71852988      11.05529502       7.63894332  T        0
Si       5.69390004       8.60116520       0.38830187  T        0
Si       7.87022820      10.88443613       7.31430537  T        0
Si       2.38729674       8.64757904       0.50710789  T        0
Si       8.81600405      10.48761464       4.24500468  T        0
Si       6.10872897      11.06669098       2.62640357  T        0
Si       4.00236184       8.57350696       9.47888845  T        0
Si       1.35318366       6.39007338       2.49864255  T        0
Si       1.55940154       3.24184802       2.40852505  T        0
Si       3.57015601       7.37699589       4.48610339  T        0
Si       3.77516066       2.31192671       4.37296927  T        0
Si       4.82021218       6.44605818       7.22585713  T        0
Si       5.47418105      13.42055753       0.62302792  T        0
Si       4.73696811       3.24980857       7.25759212  T        0
Si       7.91997071       6.47999258       7.02548416  T        0
Si       2.24375708      13.38084257       0.26347520  T        0
Si       7.88906865       3.25817611       7.00195558  T        0
Si       8.92291007       7.35632128       4.24213363  T        0
Si       8.83606169       2.28065265       4.11976596  T        0
Al       6.19203915       6.47637021       2.60030830  T        0
Si       6.25957787       3.25341207       2.67635807  T        0
O        0.01487640       8.24497858      -2.87509624  T        0
O        7.86016992       9.28643224      -3.27719557  T        0
O        3.62843970      11.35448168      -7.42470128  T        0
O        6.41388884       9.06332679      -0.97766263  T        0
O        6.09589771      11.07553089      -2.70085971  T        0
O        5.24478105       8.59180166      -3.27815461  T        0
O        4.43923960      12.55748205      -5.25418017  T        0
O        6.10323697      10.91182178      -6.63988652  T        0
O        4.01932637       9.90693430      -5.20994534  T        0
O        1.62621249       9.00222087      -0.85471136  T        0
O        2.57034180       8.70285603      -3.31648196  T        0
O        0.93512198      10.75059985      -2.75991568  T        0
O        3.78494897       7.20126293      -5.05504938  T        0
O        7.63360675      13.31392451      -2.83532949  T        0
O        6.29361910      12.80606435      -0.65442928  T        0
O        4.89720745      13.41751687      -2.79405241  T        0
O        1.77863861      12.52271708      -1.04495267  T        0
O        2.37426594      12.84668513      -3.60560080  T        0
O        3.67362442      15.01816445      -4.50872249  T        0
Si       6.39672949       9.48730226      -2.55861911  T        0
Si       4.56825382      11.16930087      -6.09514425  T        0
Si       1.28283107       9.19507862      -2.45460666  T        0
Si       3.90869555       8.61584498      -4.23227655  T        0
Si       6.23977074      12.65095229      -2.27625595  T        0
Si       1.22410195      12.35028836      -2.55810344  T        0
Si       3.82388519      13.45312909      -4.03528287  T        0
O       -0.21987236      10.81953488       2.83106647  T        0
O       -1.47276883      10.55663168       0.58386566  T        0
O       -2.93960814      11.36537204       2.69121964  T        0
O       -2.00814722       8.85926691       2.65229959  T        0
O       -1.27944666       7.00026095       0.78137096  T        0
O       -2.70140651       6.29557072       2.93866565  T        0
Si      -1.65660095      10.42560453       2.22688404  T        0
Si      -1.54248808       7.32283777       2.37157155  T        0
O       -0.13608308      13.20386993      -2.90947082  T        0
H       10.95532307       8.85008497       9.12727255  F        0
H       10.94686465      11.30097846       4.04088346  F        0
H        8.32487049       1.96348467       8.80281458  F        0
H        6.01931354       8.91222751      13.59787507  F        0
H        6.45001595      11.67065412      10.93294989  F        0
H        3.45924363      -0.04624542       4.41174334  F        0
H        5.69664664       1.68513527       1.05659762  F        0
H        4.03182275      12.92715973       8.82439874  F        0
H        2.35337064       1.61243811       0.82192755  F        0
H        8.21123678      12.90527891       8.50458507  F        0
H        1.92726146       8.79770260      10.59110356  F        0
H        8.57917594      -0.10444883       4.04180490  F        0
H        4.22937586       1.85859719       9.12987557  F        0
H       -0.70903753       2.56109242       2.68512249  F        0
H       11.09748793       3.17088023       4.02620164  F        0
H       11.09748793       6.69447189       4.02620164  F        0
H        5.67587981      15.71242072       0.63388066  F        0
H        2.12599875      15.71306863       0.22631132  F        0
H       -0.89571882       8.42972886      -2.58560982  F        0
H        8.23844393       8.42947104      -3.52791591  F        0
H        3.46536401      10.58100877      -7.98399561  F        0
H        6.92226376      10.80641058      -6.12968159  F        0
H        4.51576461       6.77574371      -5.53388946  F        0
H        8.00189534      13.25020102      -3.73344676  F        0
H        4.05997682      15.72757570      -3.96600313  F        0
H       -2.15644976      10.75416907      -0.07046469  F        0
H       -3.49783775      11.30937631       3.49139018  F        0
H       -2.04192548       6.80874135       0.22907734  F        0
H       -3.26882835       6.52695112       3.69123277  F        0
H       -1.04605969      13.03623234      -2.60031420  F        0
Fe       4.06302959       9.13752981       2.52359994  T        1
