136
Lattice="19.123 0.0 0.0 0.0 14.277 0.0 0.0 0.0 7.5465" Properties=species:S:1:pos:R:3:move_mask:L:1:tags:I:1 i=128 E=-2603.9155142701 regions="_JSON [\"Active\"]" n_terminators=34 energy=-900.9322146027703 pbc="F F F"
O       15.28797567       8.49305959       5.61234854  T        0
O       13.22280471       1.18099372       1.41361591  T        0
O       15.63528147       5.87514259       5.52045946  T        0
O       12.97651604      13.17657294       1.49389181  T        0
O       12.67693727      13.27192262       5.60956435  T        0
O       15.72324695       5.95340010       1.88724013  T        0
O       12.74175392       1.12259040       5.47955939  T        0
O       15.48513595       8.54416813       1.64994979  T        0
O       17.16779189      10.61444603       6.10165904  T        0
O       11.86558613       3.35431367       2.50734183  T        0
O       17.09810548       3.35030718       6.25498854  T        0
O       11.85575776      10.84827086       2.49383060  T        0
O       11.67396097      10.79484937       5.15704251  T        0
O       16.95849482       3.68789112       1.04082937  T        0
O       11.64413406       3.51963677       5.15414877  T        0
O       16.92929816      10.67300931       1.05760971  T        0
O       16.29066284      10.20138673       3.61637033  T        0
O       12.49086243       3.27667029      -0.04406861  T        0
O       16.37949795       4.24150587       3.61688522  T        0
O       12.49443295      11.01416869      -0.03734050  T        0
O       14.31249547      11.22169574       5.59328660  T        0
O       14.41366346       3.56725539       1.83783004  T        0
O       14.29452271       3.30708375       5.53635244  T        0
O       14.42263273      10.97955824       1.89049663  T        0
O       11.50540550       8.48639597       3.76007476  T        0
O       17.31525744       1.14593238       0.07242672  T        0
O       11.38607663       5.76338542       3.64252834  T        0
O       17.32654765      13.14835010      -0.03018652  T        0
O        9.51370363      10.35792373       3.54772466  T        0
O        9.47920823       3.83671189       3.53092883  T        0
O       13.20606775       6.92775803       5.14743189  T        0
O       13.37089931       7.09088983       2.45093586  T        0
O       14.13940110       6.93700143      -0.09537546  T        0
Al      15.61251189      10.15985351       5.30677000  T        0
Si      12.99263589       2.81847378       1.45792757  T        0
Al      15.81949399       4.07719337       5.33931044  T        0
Si      12.93601986      11.52229524       1.47179742  T        0
Si      12.81118507      11.65650830       5.99203530  T        0
Si      15.84564203       4.27687963       2.07466499  T        0
Si      12.85226442       2.71976253       5.95016501  T        0
Si      15.78167506      10.11152687       2.05448877  T        0
Si      11.12244075      10.10098214       3.76569047  T        0
Si      17.55381759       2.76533030      -0.19798589  T        0
Si      11.08514572       4.13812725       3.73523837  T        0
Si      17.56745116      11.52125155      -0.19809952  T        0
Si      14.60951325       7.09128215       5.98939101  T        0
Si      14.65013852       7.16398247       1.45341747  T        0
Si      12.35600170       7.08030616       3.76150614  T        0
O       21.44673148      10.99373950       9.01001169  T        0
O       21.45017604      12.93848863       7.07981773  T        0
O       19.20665543       2.95743318       7.98522676  T        0
O       19.27437615      11.35058541       7.53638272  T        0
O       24.10007135       7.22965718       7.61176282  T        0
Si      20.93594305      11.42320707       7.49161046  T        0
O       22.75601290       8.23121474       5.47254916  T        0
O       22.69348561       5.58494501       6.10655497  T        0
O       22.41974260       8.38841108       1.69624306  T        0
O       21.57658872      10.48062453       6.29722582  T        0
O       21.53694374      10.80507754       1.21387773  T        0
O       22.52258688      10.25063926       3.71161147  T        0
O       24.26894673      10.27897882       5.79923143  T        0
O       24.20599978      10.32419063       1.57838552  T        0
O       20.91115982      13.17454471       0.03591460  T        0
O       19.17430173       3.04675125      -0.37011461  T        0
O       19.19224875      11.26480253      -0.17098331  T        0
O       24.95670280       6.68365403       5.08081396  T        0
Si      22.74297203       9.86835845       5.30196704  T        0
Si      22.65842498       9.97391103       2.08722301  T        0
Si      20.82572019      11.53217675      -0.09119189  T        0
Si      23.62530394       6.95538267       6.04016862  T        0
O       21.55460304      11.08450533      -1.51077796  T        0
O       12.82012120       1.20534816       9.72726359  T        0
O       12.84958574      13.05528752       9.78450375  T        0
O       15.50650072       5.81681464       9.70015732  T        0
O       15.56718354       8.47167074       9.46695145  T        0
O       11.53696069       3.54304049       9.90824799  T        0
O       11.58141756      10.71155563       9.91027102  T        0
O       16.79969841       3.55418532       8.87274755  T        0
O       16.87080152      10.74903334       8.77837824  T        0
O       16.27320864      10.31155026      11.34745504  T        0
O       12.59951967       2.85309891       7.57607280  T        0
O       16.24975462       3.83802694      11.39122076  T        0
O       12.55633922      11.44290178       7.60314629  T        0
O       14.23049462       3.50175435       9.60676456  T        0
O       14.30035188      10.80831373       9.54822132  T        0
O       17.30887575       1.09479314       7.80549625  T        0
O       17.25076472      13.07595323       7.37206944  T        0
O       13.16653001       7.25937598       9.85160866  T        0
O       14.32991833       6.96332424       7.58842785  T        0
Si      12.82157916       2.77889214       9.20186880  T        0
Si      12.84882845      11.49773288       9.21445004  T        0
Si      15.69135952       4.18447523       9.87936087  T        0
Si      15.74438801      10.07842745       9.79086841  T        0
Si      17.59696891       2.73671293       7.67014384  T        0
Si      17.62513666      11.45866829       7.47107096  T        0
Si      14.66507247       7.12444855       9.17556652  T        0
O       16.89181822      10.98723298      -1.62622768  T        0
O       16.78439474       3.20074330      -1.60774857  T        0
H       13.50938118       0.51971906       2.07492992  F        0
H       13.50958039      13.75682243       2.07498241  F        0
H       13.51084140      13.75504172       5.44776650  F        0
H       13.50975252       0.52161770       5.44778410  F        0
H       12.76076393       2.97683097      -0.93375646  F        0
H       12.76174962      11.29928001      -0.93393629  F        0
H       16.56036088       0.51548555      -0.00076213  F        0
H       16.56020813      13.76127004      -0.00066979  F        0
H        8.59739021      10.07362933       3.76217937  F        0
H        8.59637561       4.20354031       3.76204115  F        0
H       14.60982961       7.13673871      -0.92783774  F        0
H       22.00483182      10.29715766       9.41435165  F        0
H       21.68557806      13.76129914       7.54737584  F        0
H       20.08726577       2.93486642       7.54597012  F        0
H       23.63198861       7.14016697       8.47499567  F        0
H       22.48364390       4.89097090       5.45283813  F        0
H       23.06957714       7.66254159       1.68550051  F        0
H       24.76092223      11.11473374       5.84604825  F        0
H       24.75845825      11.12041654       1.68709931  F        0
H       21.68557806      13.76129914       0.00087584  F        0
H       20.08726577       2.93486642      -0.00052988  F        0
H       25.36244212       7.13797332       4.30618001  F        0
H       22.00608000      10.28902905      -1.85963567  F        0
H       13.50938118       0.51971906       9.62142992  F        0
H       13.50958039      13.75682243       9.62148241  F        0
H       11.39369377       3.98884644      10.77146895  F        0
H       11.39439525      10.28733182      10.77116771  F        0
H       15.92688062      10.11457984      12.25007275  F        0
H       15.92754156       4.15729643      12.25107281  F        0
H       16.56036088       0.51548555       7.54573787  F        0
H       16.56020813      13.76127004       7.54583021  F        0
H       12.88235039       7.13795337      10.76981689  F        0
H       16.24044124      10.28985035      -1.86101282  F        0
H       16.23925818       3.97887666      -1.85852020  F        0
Fe      16.82058052       6.43575414       3.89647007  T        0
Fe      18.17290965       9.60294049       4.36479168  T        1
O       18.02743015       7.80546697       4.08656895  T        2
O       19.57272985      10.38762477       3.89802492  T        3
