135
Lattice="24.397 0.0 0.0 0.0 24.397 0.0 0.0 0.0 24.397" Properties=species:S:1:pos:R:3:move_mask:L:1:tags:I:1 i=41 E=-6943.8331748197 regions="_JSON [\"Active\"]" n_terminators=24 energy=-948.8604105726155 pbc="F F F"
O        9.61723909      14.58968937      -0.04646904  T        0
O       12.31737139       9.51334262       2.53086199  T        0
O       14.87804793      20.96970457       6.11256627  T        0
O       12.22231025      15.78848776       8.72831030  T        0
O        9.80504680      18.52165978       3.59561434  T        0
O       15.60847582       9.43761044       6.22151018  T        0
O       18.69342582      14.86825193       8.51383404  T        0
O       18.69785527      20.72132841       2.67413061  T        0
O       14.69291079       9.59782443       0.00061531  T        0
O        9.57112811      12.30526589       2.46277378  T        0
O       15.71729235      12.26451963       8.92283503  T        0
O       18.85239068      10.02731769       3.60148671  T        0
O        9.61623337      15.72792103       6.15469687  T        0
O       14.81595899      18.29984744       8.74164393  T        0
O       12.10845089      20.80758266       3.57351617  T        0
O       15.60917130      20.91387585      -0.17445557  T        0
O       11.69195558      13.85839480       1.83508242  T        0
O       13.94494655      11.58884511       1.97663913  T        0
O       13.12095538      20.27039753       8.03385011  T        0
O       10.21435928      17.47825695       8.11915066  T        0
O       10.20026573      20.39391792       5.43878804  T        0
O       16.61166803      19.29788010       1.73644536  T        0
O       10.30461911      10.24219229       0.92012941  T        0
O       11.44475489      16.58469157       4.43565909  T        0
O       14.13110921      19.18442123       4.29148407  T        0
O       14.09402156      16.48123440       6.93615659  T        0
O       16.63675894      11.24397813       4.52881632  T        0
O       16.61050867      13.95874642       7.03699284  T        0
O       11.93906699      11.92083009       3.65753359  T        0
O       12.34519165      21.82553541       6.03688290  T        0
O       12.25690880      18.31776402       9.58186428  T        0
O        8.74923844      18.25958639       6.06178249  T        0
O       18.26110519      18.18100398       3.54613048  T        0
O       12.18466699       8.65515280      -0.01809169  T        0
O        8.70052584      12.07222796      -0.07306401  T        0
O       12.13956932      14.80690309       6.24781685  T        0
O       12.32705559      18.28230713       2.58925384  T        0
O       15.75339032      18.43558896       6.24390100  T        0
O       18.30316927      15.81384983       6.01479979  T        0
O       18.18491909      12.43094168       2.68380164  T        0
O       14.90448746      12.05142345       6.33111373  T        0
O       10.51950747      16.52754202       1.92476336  T        0
O       14.02683985      10.44202608       4.39178293  T        0
O       14.10730833      22.79520150       7.83128194  T        0
O       10.53551902      16.51720564      10.62699216  T        0
O        7.77745515      20.03129406       4.26553676  T        0
O       10.52732171      22.81525489       4.29783645  T        0
O       16.63784257      20.07005955       4.30255402  T        0
O       16.62735816      10.41616984       2.01162350  T        0
O       10.50425737      14.06590345       4.25687077  T        0
O        7.71198003      16.47212851       7.79705512  T        0
O       14.09933251      20.04493713      10.55559239  T        0
O       14.02177232      20.10263479       1.78112130  T        0
O        7.77912655      10.44408920       1.88389013  T        0
O       16.61316728      16.49796353       7.86914204  T        0
O       14.04845023      14.00407247       7.91422470  T        0
O       10.48630961       7.71288344       1.86667854  T        0
Al      10.91316009      15.18724735       0.88828629  T        0
Si      13.05143997      10.83886331       3.14862438  T        0
Si      13.60272760      21.46128158       7.02197883  T        0
Si      11.29900279      17.03140251       9.26588206  T        0
Si       9.11861878      19.30258211       4.86742145  T        0
Si      17.57290943      19.57706386       3.05011793  T        0
Al      15.31472433      10.86888230       0.98360765  T        0
Si      10.91692328      13.03778284       3.04726249  T        0
Si       9.07708867      16.99248509       7.04884432  T        0
Si      13.56340965      19.23615489       9.23123151  T        0
Si      11.28704997      21.46925615       4.85416515  T        0
Si      15.30273969      19.67557227       0.85235312  T        0
Si       9.08049922      11.25793123       1.28914845  T        0
Si      10.92100404      15.27109954       5.27577727  T        0
Si      13.14801457      19.65695612       3.09457574  T        0
Si      15.33135386      17.42266562       7.45593157  T        0
Si      17.56617660      10.99029168       3.18831298  T        0
Si      15.32900196      13.06499461       7.53397812  T        0
Si      11.31888120       9.02163947       1.31314325  T        0
Si      15.30240195      10.80670218       5.35001314  T        0
Si      17.56511357      15.25126235       7.36921655  T        0
Si      15.37423277      19.66600011       5.25933567  T        0
Si      10.94210397      17.45148879       3.14937897  T        0
Si      13.12605067      15.27092918       7.46474204  T        0
O       14.82641339      12.14108659      -2.54901094  T        0
O       15.60742101      18.65737495      -2.47915103  T        0
O       12.08003875      14.84176192      -2.60427793  T        0
O       18.60378377      15.60205227      -2.51331707  T        0
O       13.94508118      14.05899703      -0.89631051  T        0
O       16.65520680      16.65737533      -1.00348529  T        0
O       13.00912809      10.19950877      -2.00591330  T        0
O       10.15527240      12.97557785      -2.10567877  T        0
O       12.23318363      15.90449652      -0.11027581  T        0
O       15.55822176      12.37486265       0.08016457  T        0
O       18.27535284      14.76737554       0.06613504  T        0
O       14.80157706      18.28359921       0.05266712  T        0
O       12.33547706      12.31771180      -3.45679296  T        0
O       16.50678235      14.09817621      -1.76364689  T        0
O       14.04001980      10.50088080      -4.49015050  T        0
O        7.66483502      13.97098839      -1.66779048  T        0
O       14.08319080      16.55811926      -1.86120504  T        0
O       10.54405950      13.99569310      -4.57044791  T        0
O       14.05994458       7.71505724      -1.71951346  T        0
Si      15.26741240      13.12233596      -1.31780555  T        0
Si      15.31261537      17.50651775      -1.34757410  T        0
Si      13.05952762      15.35146715      -1.41053707  T        0
Si      17.53501411      15.28895887      -1.29345596  T        0
Si      13.50455338       9.04762610      -0.92427908  T        0
Si      11.26418795      13.51266078      -3.17374777  T        0
Si       9.04125299      13.40928759      -0.96573767  T        0
Si      13.54196287      11.26476841      -3.11884095  T        0
H       16.48559112       9.33840607       6.62628668  F        0
H       18.82464116      14.01032609       8.95915608  F        0
H       18.82463422      21.15752504       1.81198193  F        0
H       16.48560162      11.67124930       8.95913012  F        0
H       18.82463962       9.33839646       4.28720704  F        0
H       16.48550522      21.15749796      -0.52720744  F        0
H       19.09683476      17.79487503       3.24462109  F        0
H       19.09684364      15.44301376       5.59651532  F        0
H       19.09682945      12.70103459       2.85456062  F        0
H       13.68673605      23.15239550       8.63276462  F        0
H        9.66477675      16.80915558      10.95402362  F        0
H        7.34351903      20.83116256       4.61081863  F        0
H        9.66481601      23.15243056       4.61081458  F        0
H        7.34350493      16.80917637       8.63275504  F        0
H       13.68672539      20.83112809      10.95404502  F        0
H        7.34352333       9.66479174       1.48837704  F        0
H        9.66479163       7.34352337       1.48837704  F        0
H       16.48557283      18.82464187      -2.86023677  F        0
H       18.82464171      16.48557294      -2.86023676  F        0
H       19.09678362      15.05286173       0.50248505  F        0
H       13.68673308       9.66480596      -4.85513656  F        0
H        7.34352146      13.68671965      -2.53387758  F        0
H        9.66480591      13.68673318      -4.85513656  F        0
H       13.68671953       7.34352150      -2.53387758  F        0
Fe      13.45373314      16.80336497       1.45340202  T        0
Fe      13.94313811      13.58986363       1.44878254  T        1
O       14.44208001      15.34030969       1.86955921  T        2
