148
Lattice="24.397 0.0 0.0 0.0 24.397 0.0 0.0 0.0 24.397" Properties=species:S:1:pos:R:3:move_mask:L:1:tags:I:1 i=41 E=-6943.8331748197 regions="_JSON [\"Active\"]" n_terminators=24 energy=-1049.4547856738277 pbc="F F F"
O        9.64628712      14.62679031      -0.13420855  T        0
O       12.31527123       9.53968014       2.48467442  T        0
O       14.88392671      21.06346907       6.20687306  T        0
O       12.13954751      15.63486794       8.87204486  T        0
O        9.63560930      18.54054558       3.41049587  T        0
O       15.65619880       9.44070634       6.12944835  T        0
O       18.27216084      14.81070404       8.88333205  T        0
O       21.03964066      12.10875214       3.42712739  T        0
O       20.91917444      15.72482481      -0.01308081  T        0
O       18.33074045      20.89678432       2.62119564  T        0
O       14.63945514       9.59780641       0.10512663  T        0
O        9.55824549      12.22388577       2.57171414  T        0
O       21.05793523      14.85443901       6.16070060  T        0
O       15.63321557      12.13478731       8.86784468  T        0
O       18.26852243       9.43728718       3.49316004  T        0
O        9.43893359      15.61166450       6.20280505  T        0
O       14.80416419      18.26110743       8.89240358  T        0
O       11.85214630      20.80864089       3.40275141  T        0
O       15.81600835      20.87666064      -0.21222781  T        0
O       20.99673546      18.25146123       2.59412183  T        0
O       11.56590253      13.83383204       1.82446195  T        0
O       13.98160568      11.57727774       1.86149600  T        0
O       19.16799743      16.45097925       1.88033651  T        0
O       16.49986983      19.04789247       1.92412046  T        0
O       10.29404929      10.26223832       0.89485391  T        0
O       11.21977514      16.63077951       4.51041010  T        0
O       13.90675469      19.35418537       4.41432052  T        0
O       13.96843750      16.46597552       7.05916265  T        0
O       19.26292409      13.91925748       4.36751292  T        0
O       16.56030938      11.32624752       4.40738215  T        0
O       16.47253582      13.96535007       7.05839434  T        0
O       20.32855834      20.24421077       0.92316132  T        0
O       12.03470490      11.98733713       3.60024864  T        0
O       18.49286160      18.41636701       3.56548334  T        0
O       12.16383557       8.63517103      -0.02183451  T        0
O        8.66873139      12.12916836       0.03022154  T        0
O       12.04251022      14.84131221       6.28448936  T        0
O       12.24425939      18.23357407       2.67874021  T        0
O       15.53100621      18.43514752       6.28459645  T        0
O       18.43815637      15.54036654       6.27662178  T        0
O       18.43916751      12.03988139       2.69964705  T        0
O       14.84559860      12.03634423       6.28254935  T        0
O       18.35878131      21.73426297       0.07052562  T        0
O       21.81427355      18.24685798       0.04232314  T        0
O       10.43361237      16.50051658       1.93626816  T        0
O       14.05148327      10.41817419       4.30969771  T        0
O       20.07524996      13.93051076       1.79108565  T        0
O       16.54295379      20.02620396       4.41369180  T        0
O       16.45129226      10.45130235       1.88394327  T        0
O       10.47354016      14.03966695       4.30827931  T        0
O       13.84277918      20.04200310       1.78685318  T        0
O       20.08361697      16.48393297       4.38380119  T        0
O       20.06394259      22.73974173       1.92343115  T        0
O        7.79297408      10.40362413       1.93509175  T        0
O       16.52649669      16.52518473       7.86590583  T        0
O       13.92107839      13.91822450       7.91996042  T        0
O       22.86617809      19.96288780       1.82496408  T        0
O       10.47283163       7.73129167       1.87527724  T        0
Al      10.87705343      15.22582733       0.88092543  T        0
Si      13.06889815      10.84108566       3.09910513  T        0
Si      19.65602723      15.23902695       0.90538841  T        0
Si      17.44886737      19.59174706       3.10401057  T        0
Si      15.21579920      10.87480636       0.92988822  T        0
Si      10.87174829      13.03147198       3.09673628  T        0
Al      15.26985408      19.65573929       0.86141252  T        0
Si      19.68191785      17.41684286       3.10497759  T        0
Si       9.06230503      11.25237637       1.33842358  T        0
Si      10.80186047      15.27999808       5.33286676  T        0
Si      13.00623726      19.68569526       3.09531713  T        0
Si      15.20741763      17.43216115       7.52283084  T        0
Si      19.69735672      15.19918965       5.30007292  T        0
Si      17.45785939      10.82314246       3.13562638  T        0
Si      15.22964611      13.01877970       7.53701837  T        0
Si      21.49644924      19.18899207       1.34472892  T        0
Si      11.28389836       9.03299276       1.29937814  T        0
Si      15.29264411      10.81711162       5.30933249  T        0
Si      19.70405009      13.00952898       3.08351755  T        0
Si      17.43581726      15.21083529       7.51765522  T        0
Si      15.23253032      19.71333126       5.31902330  T        0
Si      10.83434408      17.45433516       3.15159471  T        0
Si      13.01836104      15.22770382       7.53861857  T        0
Si      19.26490398      21.40653013       1.37946674  T        0
O       14.75979946      12.17554883      -2.61984478  T        0
O       15.76538297      18.44803344      -2.49444477  T        0
O       12.08587181      14.66277647      -2.47137438  T        0
O       18.37579364      15.68855670      -2.61028569  T        0
O       14.01237485      13.94293899      -0.75866964  T        0
O       16.51249223      16.46318460      -0.87486787  T        0
O       13.02560570      10.25024069      -1.93579641  T        0
O       10.08838604      12.86439716      -2.08760915  T        0
O       17.59931665      20.43466425      -2.12900719  T        0
O       20.31004283      17.45373375      -1.98865971  T        0
O       12.36080723      15.78256861       0.01048965  T        0
O       15.66101037      12.07517248      -0.07508201  T        0
O       18.41342768      14.80835736      -0.06729444  T        0
O       14.65634639      18.16125222      -0.03694879  T        0
O       12.23319706      12.21440496      -3.50647501  T        0
O       18.24344045      18.22575420      -3.45151450  T        0
O       16.54555693      13.95026450      -1.74938023  T        0
O       14.07187656      10.45734715      -4.44486778  T        0
O       22.79766822      16.43520523      -1.70804147  T        0
O       16.49546986      19.96623053      -4.53229311  T        0
O        7.61712770      13.92140052      -1.63771998  T        0
O       14.07952127      16.39343307      -1.93921292  T        0
O       10.50025624      14.02867281      -4.48627075  T        0
O       16.74675576      22.96027192      -1.58960277  T        0
O       19.99479399      16.46258219      -4.50239428  T        0
O       14.06643979       7.75943613      -1.73448003  T        0
Si      15.28505458      13.02845756      -1.34543836  T        0
Si      15.26919688      17.39399986      -1.36308287  T        0
Si      13.10262767      15.23275560      -1.34836220  T        0
Si      17.48398681      15.23368556      -1.32469832  T        0
Si      13.46361898       9.04695283      -0.91732549  T        0
Si      11.20511011      13.43034799      -3.13079317  T        0
Si      17.10643336      21.48725966      -0.94954360  T        0
Si      19.24612363      16.97988928      -3.13709219  T        0
Si       9.01267048      13.40082238      -0.95056076  T        0
Si      13.49723033      11.25662976      -3.13825108  T        0
Si      21.46198287      16.97984896      -0.91928162  T        0
Si      17.03970030      19.28488937      -3.13686851  T        0
H       14.01033133      21.15748981       6.62630180  F        0
H       11.67124922      16.48560174       8.95913012  F        0
H        9.33839640      18.82463975       4.28720704  F        0
H       16.48559112       9.33840607       6.62628668  F        0
H       18.82464116      14.01032609       8.95915608  F        0
H       21.15750258      11.67126816       4.28721909  F        0
H       21.15748967      14.01033142       6.62630180  F        0
H       16.48560162      11.67124930       8.95913012  F        0
H       18.82463962       9.33839646       4.28720704  F        0
H        9.33840600      16.48559124       6.62628668  F        0
H       14.01032599      18.82464129       8.95915608  F        0
H       11.67126808      21.15750273       4.28721909  F        0
H       20.83112530      23.15241223       1.48839475  F        0
H        7.34352333       9.66479174       1.48837704  F        0
H       23.15241204      20.83112542       1.48839475  F        0
H        9.66479163       7.34352337       1.48837704  F        0
H       13.68673308       9.66480596      -4.85513656  F        0
H       23.15240156      16.80916493      -2.53384338  F        0
H       16.80913871      20.83112323      -4.85512183  F        0
H        7.34352146      13.68671965      -2.53387758  F        0
H        9.66480591      13.68673318      -4.85513656  F        0
H       16.80916481      23.15240172      -2.53384338  F        0
H       20.83112308      16.80913882      -4.85512183  F        0
H       13.68671953       7.34352150      -2.53387758  F        0
Fe      13.64292302      13.83211746       1.51824859  T        0
Fe      13.62584490      17.06604802       1.38144333  T        0
O       13.86727455      15.56221064       2.71386828  T        0
O       14.92150188      15.35221385       1.69381335  T        0
