135
Lattice="24.397 0.0 0.0 0.0 24.397 0.0 0.0 0.0 24.397" Properties=species:S:1:pos:R:3:move_mask:L:1:tags:I:1 i=41 E=-6943.8331748197 regions="_JSON [\"Active\"]" n_terminators=24 energy=-948.7233114563306 pbc="F F F"
O        9.62519784      14.60797969      -0.09261310  T        0
O       12.33046514       9.51852880       2.53181715  T        0
O       14.90766538      20.79557991       6.48749462  T        0
O        9.64985273      18.51951090       3.42303580  T        0
O       15.60345587       9.71579869       6.45545454  T        0
O       21.04953953      12.13546251       3.44060981  T        0
O       20.91514865      15.72323578       0.01065280  T        0
O       18.32609018      20.90758044       2.65073759  T        0
O       14.63790313       9.60529280       0.12528052  T        0
O        9.54604674      12.24307987       2.59302115  T        0
O       20.66201953      14.84559287       6.55128405  T        0
O       18.21687637       9.42047510       3.53100882  T        0
O        9.64972606      15.57566581       6.44511513  T        0
O       11.84461521      20.76231209       3.42099044  T        0
O       15.81817777      20.85958276      -0.18478087  T        0
O       21.01699728      18.23892081       2.63645601  T        0
O       11.57887596      13.83126054       1.85344952  T        0
O       13.95958381      11.57882383       1.90061314  T        0
O       19.17208406      16.46610935       1.91666450  T        0
O       16.54343638      19.02999501       1.93474958  T        0
O       10.32660561      10.28027445       0.94116786  T        0
O       11.20995829      16.64270153       4.59014348  T        0
O       13.88430450      19.36572292       4.50883923  T        0
O       19.27804666      13.90126429       4.43847307  T        0
O       16.56711225      11.31732996       4.49193857  T        0
O       20.30707704      20.21798570       0.95614285  T        0
O       12.00551183      11.96698126       3.63559947  T        0
O       18.52167155      18.43470918       3.61473763  T        0
O       12.17256907       8.62535362       0.01919762  T        0
O        8.67282586      12.10547750       0.04024960  T        0
O       12.21663747      14.65870465       6.15477939  T        0
O       12.28086111      18.19049338       2.72620028  T        0
O       15.76984640      18.22545689       6.09498131  T        0
O       18.17428879      15.75376152       6.06108257  T        0
O       18.43242323      12.03543851       2.76847970  T        0
O       14.64566306      12.23928915       6.14669817  T        0
O       18.35492454      21.73443612       0.08767271  T        0
O       21.81133215      18.23944538       0.07134607  T        0
O       10.44949291      16.45765120       2.00035289  T        0
O       14.06156302      10.42857130       4.35883411  T        0
O       20.03981475      13.94374373       1.83072169  T        0
O       16.51192798      20.03995792       4.41802742  T        0
O       16.42258007      10.47759779       1.93847470  T        0
O       10.47644278      14.05252803       4.34260164  T        0
O       13.88960269      20.02163232       1.86467504  T        0
O       20.09839255      16.44523142       4.42012429  T        0
O       20.07417726      22.72903093       1.93193629  T        0
O        7.81250136      10.38207792       1.95224984  T        0
O       22.85619077      19.97257638       1.84288352  T        0
O       10.46010344       7.73594081       1.89833583  T        0
Al      10.88575798      15.21340485       0.89605405  T        0
Si      13.05863716      10.83446181       3.15184417  T        0
Si      19.64557857      15.25537756       0.93389998  T        0
Si      17.45628367      19.59050761       3.13634954  T        0
Si      15.19547807      10.88297394       0.96275824  T        0
Si      10.86957582      13.04273853       3.12257988  T        0
Al      15.28628577      19.62685466       0.89359042  T        0
Si      19.69534566      17.41287062       3.15684845  T        0
Si       9.07280464      11.25395911       1.36419117  T        0
Si      10.88879105      15.25250854       5.39552227  T        0
Si      13.02414262      19.65162893       3.14919750  T        0
Si      19.56683709      15.22387125       5.37327366  T        0
Si      17.43365865      10.82835513       3.19109765  T        0
Si      21.49127107      19.17965741       1.37698837  T        0
Si      11.29368307       9.03216089       1.33964604  T        0
Si      15.25407481      10.92045038       5.38922221  T        0
Si      19.69472561      13.02127979       3.12715083  T        0
Si      15.26310120      19.61309839       5.37838980  T        0
Si      10.85554743      17.43064612       3.19605055  T        0
Si      19.25809555      21.39974975       1.40062578  T        0
O       14.72276772      12.18324933      -2.57158168  T        0
O       15.76111935      18.45207753      -2.47934674  T        0
O       12.11129155      14.63760800      -2.48806644  T        0
O       18.36795177      15.68855927      -2.59357651  T        0
O       14.00737774      13.98712662      -0.71263329  T        0
O       16.49630511      16.46424884      -0.86208569  T        0
O       13.00991502      10.23677845      -1.91065494  T        0
O       10.08652254      12.87302689      -2.07413551  T        0
O       17.60304504      20.42434370      -2.10845839  T        0
O       20.29971777      17.45214759      -1.96296442  T        0
O       12.28072161      15.83976840      -0.04754192  T        0
O       15.63257112      12.09614075      -0.03049047  T        0
O       18.40440747      14.83085584      -0.04332634  T        0
O       14.64600206      18.15262820      -0.01134409  T        0
O       12.20981014      12.18057356      -3.50464064  T        0
O       18.24150198      18.22277509      -3.44530124  T        0
O       16.53594243      13.94698129      -1.71854395  T        0
O       14.07985423      10.43475840      -4.40590357  T        0
O       22.79313822      16.44666127      -1.70258036  T        0
O       16.49374442      19.97219486      -4.51626848  T        0
O        7.60339413      13.88889332      -1.62420463  T        0
O       14.07134679      16.40206726      -1.94377817  T        0
O       10.50287162      14.01828369      -4.48397680  T        0
O       16.72645538      22.94070073      -1.59294205  T        0
O       20.00631041      16.45631817      -4.47846609  T        0
O       14.05078594       7.74808551      -1.71860250  T        0
Si      15.25525865      13.05112125      -1.30648973  T        0
Si      15.25126585      17.40053520      -1.34718741  T        0
Si      13.08133739      15.25145243      -1.34133075  T        0
Si      17.47199949      15.23874139      -1.30658305  T        0
Si      13.45983348       9.03854624      -0.89330619  T        0
Si      11.20478686      13.41871414      -3.12644703  T        0
Si      17.10060364      21.47739860      -0.93206957  T        0
Si      19.24441878      16.97770292      -3.11987878  T        0
Si       9.00635465      13.38984001      -0.93082332  T        0
Si      13.48286982      11.24415909      -3.11220523  T        0
Si      21.45873689      16.97919534      -0.89960731  T        0
Si      17.03760054      19.28310821      -3.12254616  T        0
H       14.01033133      21.15748981       6.62630180  F        0
H        9.33839640      18.82463975       4.28720704  F        0
H       16.48559112       9.33840607       6.62628668  F        0
H       21.15750258      11.67126816       4.28721909  F        0
H       21.15748967      14.01033142       6.62630180  F        0
H       18.82463962       9.33839646       4.28720704  F        0
H        9.33840600      16.48559124       6.62628668  F        0
H       11.67126808      21.15750273       4.28721909  F        0
H       12.70105695      15.05290863       6.89848520  F        0
H       15.44301084      17.79487314       6.89846715  F        0
H       17.79487301      15.44301094       6.89846715  F        0
H       15.05290853      12.70105704       6.89848521  F        0
H       20.83112530      23.15241223       1.48839475  F        0
H        7.34352333       9.66479174       1.48837704  F        0
H       23.15241204      20.83112542       1.48839475  F        0
H        9.66479163       7.34352337       1.48837704  F        0
H       13.68673308       9.66480596      -4.85513656  F        0
H       23.15240156      16.80916493      -2.53384338  F        0
H       16.80913871      20.83112323      -4.85512183  F        0
H        7.34352146      13.68671965      -2.53387758  F        0
H        9.66480591      13.68673318      -4.85513656  F        0
H       16.80916481      23.15240172      -2.53384338  F        0
H       20.83112308      16.80913882      -4.85512183  F        0
H       13.68671953       7.34352150      -2.53387758  F        0
Fe      13.64800314      16.99490961       1.41383966  T        1
Fe      13.69989151      13.77979639       1.63734269  T        2
O       14.26473993      15.42191412       2.17680839  T        3
