133
Lattice="20.102 0.0 0.0 0.0 19.731 0.0 0.0 0.0 13.253" Properties=species:S:1:pos:R:3:move_mask:L:1:tags:I:1 i=77 E=-3472.0240129048 regions="_JSON [\"Active\"]" n_terminators=34 energy=-880.2636937541047 pbc="F F F"
O       10.13112629       1.50579372       9.23029407  T        0
O       10.20207541       8.84710871       9.23255381  T        0
O        7.50383217       0.95107446      10.40264469  T        0
O        7.99133968       8.67565770      10.71328886  T        0
O       17.94298220       1.47695494       9.24463244  T        0
O        8.14001067       2.84174872       8.21836624  T        0
O        8.06725703       7.56267197       8.24126416  T        0
O        8.01421745      -0.04336850       7.77728160  T        0
O        7.97400191      10.26344907       8.61409100  T        0
O       11.66993428      10.01215959       5.07643937  T        0
O        6.62951558       0.83622404      12.85399615  T        0
O       16.67193763       0.77131507       7.03791064  T        0
O       14.09048830       0.64806065       2.33578343  T        0
O        4.85853562       1.36814402      10.91440555  T        0
O       15.34729570       8.35557748       9.20745322  T        0
O       15.24751577       1.18164564       9.15605043  T        0
O       16.22318908       2.51144421       5.09055113  T        0
O       14.24421500       9.33885039       5.63933681  T        0
O       14.21461668       1.01951190       5.99000245  T        0
O       14.83797247      10.03415149      11.21481800  T        0
O       16.19518253      -0.08594219       4.58696864  T        0
O       12.41078220       7.41737746       5.16581088  T        0
O       12.08125175       2.52221803       5.32394361  T        0
O       12.16940456       8.78458931       7.37044137  T        0
O       12.03028424       0.93683677       7.46262169  T        0
O       12.78370258       8.74094384       9.96037133  T        0
O       12.68907257       1.02068820      10.01357738  T        0
O        8.27203752       9.14281850       3.61902577  T        0
O        8.58182755       0.67882073       4.42718647  T        0
O       11.85490218      10.96780009       8.72037599  T        0
O       14.45387829       7.34843086      11.50370255  T        0
O       14.47056688       2.45241579      11.38025972  T        0
O        9.89399804       2.80731771       3.43349223  T        0
O       10.13951975       7.14949040       3.77314303  T        0
O       12.69166015       2.94313097       2.50971187  T        0
O       12.43238376       6.76303214       2.54342559  T        0
O       11.61982292       4.97859873       4.42147794  T        0
O       14.17209174       2.24757154       0.33594835  T        0
O       15.34995718       2.98928635       2.61467655  T        0
O       14.63373171       4.85865292      12.46193855  T        0
O        5.88899571       7.10405946       6.69495611  T        0
O        5.99964742       3.11787639       6.49189294  T        0
O       16.29598539       2.91609472      13.35936856  T        0
O       16.26099940       6.77970343      13.47329789  T        0
O        7.70915851       5.16627929       7.11086361  T        0
O        8.28295760       7.36180272       5.64237063  T        0
O        8.41723833       3.09392283       5.56844114  T        0
O        7.73967297       6.55461039       3.08692692  T        0
O        7.17278725       2.49097803       3.20675079  T        0
O       17.90615853       3.53581831       3.22152559  T        0
O       15.94971814       4.98361689       4.37210138  T        0
Al       8.35358980       1.17056452       8.93083545  T        0
Si       8.55753554       8.82069789       9.17461583  T        0
Si       6.23408781       0.50945537      11.28694734  T        0
Si      16.69623229       0.57458647       8.65711784  T        0
Si      15.81683397       1.05136178       5.68261999  T        0
Si      12.65301892       8.91268624       5.82133101  T        0
Si      12.59254185       1.07802302       5.94469977  T        0
Si      11.72301257       9.32914003       8.84731077  T        0
Si      11.49793360       0.62299987       8.96674184  T        0
Si      14.33758429       8.63471002      10.48814629  T        0
Si      14.26645363       1.12665481      10.45146000  T        0
Al      11.53357771       3.24910072       3.73700414  T        0
Si      11.64661529       6.58540294       3.97771862  T        0
Si      14.03577332       2.23461504       1.97957787  T        0
Si      14.78297892       3.25410928      12.77247839  T        0
Si      14.76500720       6.45134983      12.84054533  T        0
Si       7.49203414       6.77516404       6.93978479  T        0
Si       7.54405223       3.55634532       6.85417890  T        0
Si       8.59316086       7.58127779       4.05137002  T        0
Si       8.52926188       2.28322944       4.12345694  T        0
Si      16.35615849       3.49372503       3.79464091  T        0
O       13.67856781       2.65158511      13.83273886  T        0
O       13.64606866       6.77388614      14.00330665  T        0
O       10.05579605      -1.49524483       3.90057031  T        0
O       12.44080958      -1.39232971       2.73314750  T        0
O       12.27312161      -2.83708133       4.87322976  T        0
O       12.01240321      -0.14287298       5.05791225  T        0
O       13.79271167      -1.38390955       0.48088226  T        0
O        5.81177018      -1.08142255      11.05326625  T        0
O       17.00819674      -0.98512132       9.08520328  T        0
O       15.08621908      -1.72801510       2.82667135  T        0
O        5.78675982      -1.16440320       6.64348191  T        0
O       14.78873034      -0.27023979      11.14559018  T        0
O        7.40313142      -2.68191797       8.10026787  T        0
O        8.14607789      -1.64746687       5.69759965  T        0
O        7.52984421      -1.43733252       3.07571913  T        0
O       17.77648915      -1.76274824       3.20322384  T        0
O       10.94718959      -0.92431542       9.14084811  T        0
O       16.34587479      -2.76823683       5.02892361  T        0
Si      11.66505133      -1.47006332       4.16513046  T        0
Si      13.86413772      -0.94464294       2.05889267  T        0
Si       7.36400018      -1.35180623       7.10420789  T        0
Si       8.54955025      -0.94919802       4.27543768  T        0
Si      16.30494671      -1.56978872       3.90771301  T        0
H        7.07153747       8.87866318      10.98534327  F        0
H       18.28958667       1.43588107      10.15436837  F        0
H        7.75914502      10.43742179       7.68600442  F        0
H       11.77602644      10.74421016       4.43990149  F        0
H        6.01931354       0.95312461      13.59787507  F        0
H        4.52133035       1.34033226      10.00226603  F        0
H       16.04398914       8.93133647       8.84225548  F        0
H       15.03932990       8.88569483       5.99268334  F        0
H       14.37509523      10.52815797      11.91539967  F        0
H        8.57917776       9.96978004       4.04186183  F        0
H       11.43576677      11.60834527       9.31342917  F        0
H       13.35632228       7.06085325       2.51220488  F        0
H       14.23421140       3.11626372      -0.07819396  F        0
H        5.18772305       6.48136951       6.94399129  F        0
H        5.18772305       3.38398261       6.94399129  F        0
H       17.11292418       3.38174117      13.10695602  F        0
H       17.11292418       6.48361095      13.10695602  F        0
H        6.78202892       6.52695113       2.93525138  F        0
H        6.78202891       3.33840099       2.93525138  F        0
H       18.37141861       2.74226592       2.89672377  F        0
H       16.04230866       5.86222357       3.96597143  F        0
H       13.73584752       2.53683452      14.79637726  F        0
H       13.73584752       7.32851760      14.79637726  F        0
H       12.25872462      -3.14188650       5.79628408  F        0
H       14.08297195      -0.95342037      -0.34490676  F        0
H        6.45001594      -1.80559776      10.93294989  F        0
H       16.50115869      -1.80559776       8.94650256  F        0
H        5.06295559      -0.97995304       7.26028496  F        0
H       14.37509522      -0.66310164      11.91539968  F        0
H        8.21123678      -3.04022255       8.50458507  F        0
H        6.55301950      -1.44431996       3.13509397  F        0
H       18.17502403      -1.06794529       2.66186474  F        0
H       11.43576677      -1.74328893       9.31342918  F        0
H       15.58652088      -3.08990418       5.53385776  F        0
Fe      11.63097631       4.29228228       6.33483015  T        0
Fe       9.88637976       3.58289155       9.11922280  T        1
O       11.12078482       4.38050960       8.07273736  T        2
O        9.52633275       4.36253390      10.53228569  T        3
