138
Lattice="19.123 0.0 0.0 0.0 14.277 0.0 0.0 0.0 7.5465" Properties=species:S:1:pos:R:3:move_mask:L:1:tags:I:1 i=128 E=-2603.9155142701 regions="_JSON [\"Active\"]" n_terminators=30 energy=-940.9050635730981 pbc="F F F"
O       15.84755503       8.41303677       5.47844436  T        0
O       12.84343591       1.35049727       1.55427673  T        0
O       15.29484814       5.89880210       5.86756258  T        0
O       15.60854479       5.85684877       1.58320981  T        0
O       12.88935185       1.10798904       5.67432134  T        0
O       15.87261194       8.46093076       1.77216272  T        0
O       11.63975723       3.60241578       2.39788811  T        0
O       17.14753031       3.57234654       6.21662598  T        0
O       16.81018254       3.50934928       1.11022992  T        0
O       11.95896113       3.54779557       5.06755741  T        0
O       12.45334699       3.43139323      -0.12572983  T        0
O       16.18186312       4.18779933       3.60913073  T        0
O       14.26421168       3.56568298       1.87518966  T        0
O       14.61625330       3.05412112       5.62232950  T        0
O       11.29249912       8.42097294       3.56198525  T        0
O       16.96973599       1.28273634      -0.34246263  T        0
O       11.66270398       5.85706670       3.80666787  T        0
O        9.53964895       4.13145721       4.07242891  T        0
O       13.30059623       7.54448625       5.14523874  T        0
O       15.32748015      -0.10661930       1.20384775  T        0
O       15.30032893       0.06668462       6.17513110  T        0
O       13.50824162       7.29860326       2.47744200  T        0
O       14.16916274       7.38923109      -0.09102278  T        0
O       14.35438323      -0.03437356       3.68671944  T        0
Si      12.80655809       2.96347382       1.42916193  T        0
Al      15.79615398       4.38906057       5.29255373  T        0
Si      15.71753464       4.29247229       2.06320366  T        0
Si      13.03617285       2.72892348       5.98053816  T        0
Si      17.52085494       2.84336448      -0.19993196  T        0
Si      11.16292123       4.29343650       3.81108801  T        0
Si      14.68612915       7.37266179       6.02106308  T        0
Al      13.66588051      -0.08845753       1.99160124  T        0
Si      13.89408323      -0.10545743       5.27059792  T        0
Si      14.78226305       7.26468364       1.44440730  T        0
Si      12.46775836       7.28171715       3.75146303  T        0
Si      16.17111055      -0.13242442      -0.23330704  T        0
O       19.21409041       3.02013633       7.99240341  T        0
O       21.24033324       3.86711348       1.25694344  T        0
O       21.41983097       1.37064289       0.18215680  T        0
O       19.15350803       2.82082770      -0.03996811  T        0
O       23.63269510      -0.08313778       0.90575822  T        0
Si      20.80763429       2.89491083      -0.01583005  T        0
Si      22.30354776       0.00614038      -0.08203401  T        0
O       21.20554545       3.53627802      -1.48444544  T        0
O       22.89714200       0.05771863      -1.62147808  T        0
O       19.17552840      -3.14889280       7.85317989  T        0
O       21.20549632      -3.48342248       1.61173274  T        0
O       21.32715915      -1.31536305       0.02241156  T        0
O       19.26253639      -3.03165734      -0.12163156  T        0
Si      20.89462050      -2.90900890       0.09407405  T        0
O       21.76984704      -3.87849703      -0.91730338  T        0
O       12.96232174       1.24250394       9.57148750  T        0
O       15.42582954       5.89573727       9.41708383  T        0
O       15.63135262       8.44992662       9.88667241  T        0
O       11.56733178       3.53668954       9.91614976  T        0
O       16.80785873       3.65809758       8.88204663  T        0
O       12.74600082       3.00556630       7.57840479  T        0
O       16.33203331       4.23274400      11.36794894  T        0
O       14.27131950       3.53046022       9.74980603  T        0
O       17.10155990       1.33323738       7.51776345  T        0
O       15.21894385      -0.03258808       8.87518001  T        0
O       13.12760348       7.28229494       9.84080933  T        0
O       14.36515332       7.65205294       7.61146066  T        0
O       14.53827270      -0.04838122      11.38205507  T        0
Si      12.88688857       2.84992177       9.20859891  T        0
Si      15.68150218       4.34695389       9.86241461  T        0
Si      17.61059733       2.94478491       7.66625602  T        0
Si      13.90319170      -0.06288839       9.86397762  T        0
Si      14.64446354       7.32475371       9.18650229  T        0
Si      16.19496338      -0.05606578       7.59092976  T        0
O       17.12562674       3.66728965      -1.58082796  T        0
O       15.16915110      -0.50070779      -1.48496942  T        0
O       13.04663408      -1.41987723       9.55369066  T        0
O       15.72297974      -6.03932922       9.79892652  T        0
O       11.53296084      -3.64078898       9.87175248  T        0
O       16.77891419      -3.71497120       8.81361737  T        0
O       16.29001385      -3.94502689      11.36985622  T        0
O       12.63240371      -3.17863426       7.56380781  T        0
O       14.22462889      -3.81959911       9.61434767  T        0
O       17.12394228      -1.38250506       7.54312110  T        0
Si      12.87980998      -3.01127640       9.17328303  T        0
Si      15.73662235      -4.39066525       9.88498980  T        0
Si      17.56647002      -2.98556643       7.57958054  T        0
O       15.94913075      -6.05299728       5.68602200  T        0
O       12.87288281      -1.57053128       1.66431778  T        0
O       13.18617959      -1.51214082       5.59798370  T        0
O       15.91869308      -5.98929656       1.69164456  T        0
O       17.08820657      -3.67310078       6.15892727  T        0
O       11.73995806      -3.90724490       2.35446160  T        0
O       11.89708606      -3.76422415       5.03699673  T        0
O       16.96004874      -3.61168680       1.23087420  T        0
O       16.16759874      -4.19556838       3.71572061  T        0
O       12.54450191      -3.53941469      -0.16219785  T        0
O       14.45252052      -3.84068994       5.74908656  T        0
O       14.33718801      -3.79833325       1.83282323  T        0
O       11.29290861      -6.11307214       3.84743721  T        0
O       17.21513029      -1.37392511      -0.15817545  T        0
O        9.54155217      -4.04177016       3.97835496  T        0
Si      15.90549248      -4.44291759       5.31633106  T        0
Si      12.87201202      -3.16289580       1.42039102  T        0
Si      13.02558940      -3.09274411       5.98401469  T        0
Si      15.82294502      -4.39908396       2.11541327  T        0
Si      11.11107258      -4.46411408       3.76776367  T        0
Si      17.62373906      -2.97362147      -0.13754440  T        0
O       17.12422492      -3.75565077      -1.50274633  T        0
H       15.75671561       9.37610020       5.45468838  F        0
H       15.75699573       9.38061947       2.07980242  F        0
H       12.76076393       2.97683097      -0.93375646  F        0
H       11.31595404       9.37380971       3.76235534  F        0
H        8.59637561       4.20354031       3.76204115  F        0
H       14.60982961       7.13673871      -0.92783774  F        0
H       20.08726577       2.93486642       7.54597012  F        0
H       22.00636260       3.98381786       1.86150429  F        0
H       23.80717611       0.00053719       1.86293871  F        0
H       21.98145514       3.97853683      -1.88343379  F        0
H       23.83786620      -0.00082127      -1.85651885  F        0
H       20.08739461      -2.93488337       7.54749186  F        0
H       22.00483182      -3.97984234       1.86785165  F        0
H       22.00608000      -3.98797095      -1.85963567  F        0
H       15.75699573       9.38061947       9.62630242  F        0
H       11.39369377       3.98884644      10.77146895  F        0
H       15.92754156       4.15729643      12.25107281  F        0
H       12.88235039       7.13795337      10.76981689  F        0
H       14.07270598       0.00010018      12.23669175  F        0
H       16.23925818       3.97887666      -1.85852020  F        0
H       14.44051635       0.00152190      -1.88177140  F        0
H       15.17712900      -6.61799919       9.23343573  F        0
H       11.39439525      -3.98966818      10.77116771  F        0
H       15.92688062      -4.16242016      12.25007275  F        0
H       15.17320598      -6.62175386       5.84596239  F        0
H       15.17712900      -6.61799919       1.68693573  F        0
H       12.76174962      -2.97771999      -0.93393629  F        0
H       12.12595522      -6.62290057       3.76264176  F        0
H        8.59739021      -4.20337067       3.76217937  F        0
H       16.24044124      -3.98714965      -1.86101282  F        0
Fe      16.36373474       0.14193005       2.87370989  T        1
Fe      16.45330366       1.77958841       5.32049582  T        2
O       17.46872067       0.84219505       4.09795891  T        3
