144
Lattice="20.102 0.0 0.0 0.0 19.731 0.0 0.0 0.0 13.253" Properties=species:S:1:pos:R:3:move_mask:L:1:tags:I:1 i=77 E=-3472.0240129048 regions="_JSON [\"Active\"]" n_terminators=32 energy=-981.5203993696871 pbc="F F F"
O       10.35586360       1.31262518       8.98566631  T        0
O       10.12029685       8.76380787       9.15491848  T        0
O        7.67959388       1.13226710      10.48770244  T        0
O        7.91711594       8.53601721      10.63489795  T        0
O       18.00614415       1.33357401       9.22741027  T        0
O        8.41761826       2.74993008       8.13405808  T        0
O        7.95225952       7.65900841       8.06952630  T        0
O        7.94414249      -0.01332965       7.91034814  T        0
O        7.92368305      10.28224401       8.62849014  T        0
O       11.83899455      10.50369443       5.37688622  T        0
O        6.65637727       0.87750737      12.86937182  T        0
O       16.63084553       0.77416051       7.05291811  T        0
O       13.81046108       1.00549825       2.04474931  T        0
O        4.96396745       1.40967346      10.86776972  T        0
O       15.27641461       1.27433819       9.22915683  T        0
O       16.37591513       2.57371057       5.13863768  T        0
O       14.30819279       9.51415088       5.83635505  T        0
O       14.26927331       1.08459463       5.77419913  T        0
O       16.34580806       0.02085020       4.52866662  T        0
O       12.33599643       7.83527922       5.17197583  T        0
O       11.98583259       2.54258101       5.91472045  T        0
O       12.18481435       9.10135248       7.50513833  T        0
O       12.44690314       0.57395808       7.60329258  T        0
O       12.58585357       8.30086657      10.02594363  T        0
O       12.76401571       1.16755990      10.15125555  T        0
O        8.10522401       9.18029314       4.35157865  T        0
O        8.61577342       1.10015010       4.18881818  T        0
O       11.88961544      10.80255786       9.60815878  T        0
O       14.65725174       2.77315972      11.24758736  T        0
O        9.81365932       3.49520387       4.59959648  T        0
O       10.12999228       7.45934260       3.69025548  T        0
O       12.55473295       3.10508859       3.10514647  T        0
O       12.39223282       7.06324447       2.57661047  T        0
O       11.57047678       5.38037426       4.61007240  T        0
O       13.61085114       3.29569155       0.65235904  T        0
O       15.22742937       3.10857244       2.76931026  T        0
O        5.91538207       6.86573002       6.42677340  T        0
O        5.80961449       3.43652422       7.68619194  T        0
O        7.83736881       5.11467448       7.25119105  T        0
O        8.41748148       6.84296409       5.53998657  T        0
O        7.41947168       3.00943509       5.63560674  T        0
O        7.68492995       6.89115051       2.91149004  T        0
O        7.74079776       3.40409375       3.03145201  T        0
O       17.85639938       3.54734220       3.08489469  T        0
O       16.09917157       5.03857255       4.47046619  T        0
Al       8.52869693       1.18314527       8.99403229  T        0
Si       8.49398443       8.81627311       9.12364813  T        0
Si       6.36463164       0.61061356      11.26971875  T        0
Si      16.65096185       0.58634631       8.66841710  T        0
Si      15.89342140       1.10880426       5.64533476  T        0
Si      12.68877168       9.21905832       5.97122549  T        0
Si      12.67864875       1.05513319       6.06241672  T        0
Si      11.68164507       9.26716840       9.05436655  T        0
Si      11.76093713       0.45895059       9.07694087  T        0
Si      14.34572677       1.31629789      10.56478113  T        0
Al      11.60520608       3.57224522       4.46395050  T        0
Si      11.64857515       6.90527471       4.02461609  T        0
Si      13.77880655       2.63174760       2.15888923  T        0
Si       7.47104509       6.66700018       6.90162079  T        0
Si       7.37590888       3.52476868       7.18486788  T        0
Si       8.56385851       7.63058293       4.06788322  T        0
Si       8.41421903       2.69758417       4.35496205  T        0
Si      16.38335125       3.54834038       3.82998065  T        0
O       13.81557643      -0.43878713      13.73472312  T        0
O        9.96315460      -1.10850371       3.67839844  T        0
O       12.43564946      -1.18437559       2.75923069  T        0
O       11.81135863      -2.66303087       4.87529675  T        0
O       11.93457303       0.00714468       5.07549681  T        0
O       13.46748092      -1.10922115       0.38885068  T        0
O        6.11693457      -0.98804216      10.94230394  T        0
O       16.69400703      -1.00281326       9.04656808  T        0
O       15.09755168      -1.23908273       2.53470381  T        0
O       13.99909326      -2.53107793      11.97731330  T        0
O        5.78093069      -1.10173144       6.62102579  T        0
O       16.25192915      -1.56167420      12.96889272  T        0
O       14.78783813       0.03316668      11.45704576  T        0
O        7.78141579      -2.63949204       7.65329666  T        0
O        8.09917793      -1.17469110       5.52426719  T        0
O        7.35949282      -0.92005987       2.95525730  T        0
O       17.66432343      -1.77744523       3.07917211  T        0
O       11.44703336      -1.07529061       9.47287116  T        0
O       15.78034037      -2.58731757       4.71547961  T        0
O        9.84453749      -3.19892744       9.35950199  T        0
O        7.36971841      -3.22572816      10.20501856  T        0
O       17.68393720      -3.47489274       9.46474512  T        0
O        8.14279464      -5.06132634       8.35375332  T        0
O        6.53925209      -3.08824895      12.63649806  T        0
O       16.33193342      -2.99518782       7.28456943  T        0
O        4.69922529      -3.25572059      10.73434401  T        0
O       15.00575850      -2.97844740       9.56658534  T        0
O       15.99527112      -5.04000549       5.52957408  T        0
O       13.91760899      -3.52303638       6.35223312  T        0
O       11.76489042      -5.07621653       5.97055258  T        0
O       11.67117682      -2.82369601       7.48949248  T        0
O       12.42609035      -3.47041055       9.98887585  T        0
O       14.23861981      -5.05869264      11.13558292  T        0
Si      11.53151062      -1.24565184       4.10589664  T        0
Si      13.71536437      -0.61145552       1.93277454  T        0
Si      14.69918553      -1.16156733      12.55519017  T        0
Si       7.39540414      -1.20036068       6.99031612  T        0
Si       8.48705254      -0.53674889       4.09325986  T        0
Si      16.20490748      -1.38775691       3.71846085  T        0
Si       8.29901898      -3.52671761       8.90796929  T        0
Si       6.17275906      -2.60727623      11.11178329  T        0
Si      16.42932483      -2.60294299       8.86078030  T        0
Si      15.50433192      -3.54295369       5.98894416  T        0
Si      12.30188801      -3.53149255       6.16418946  T        0
Si      11.34636599      -2.65892391       9.06953409  T        0
Si      13.92155241      -3.51468295      10.65797401  T        0
H        7.07153747       8.87866318      10.98534327  F        0
H       18.28958667       1.43588107      10.15436837  F        0
H        7.75914502      10.43742179       7.68600442  F        0
H       11.77602644      10.74421016       4.43990149  F        0
H        6.01931354       0.95312461      13.59787507  F        0
H        4.52133035       1.34033226      10.00226603  F        0
H       15.03932990       8.88569483       5.99268334  F        0
H       13.54926599       8.42132791      10.11787432  F        0
H        8.57917776       9.96978004       4.04186183  F        0
H       11.43576677      11.60834527       9.31342917  F        0
H       14.56690736       3.08960840      12.16034191  F        0
H       13.35632228       7.06085325       2.51220488  F        0
H       14.23421140       3.11626372      -0.07819396  F        0
H        5.18772305       6.48136951       6.94399129  F        0
H        5.18772305       3.38398261       6.94399129  F        0
H        6.78202892       6.52695113       2.93525138  F        0
H        6.78202891       3.33840099       2.93525138  F        0
H       18.37141861       2.74226592       2.89672377  F        0
H       16.04230866       5.86222357       3.96597143  F        0
H       13.51650675      -0.71595242      14.61047976  F        0
H       14.08297195      -0.95342037      -0.34490676  F        0
H        5.06295559      -0.97995304       7.26028496  F        0
H       16.97340650      -0.94135423      12.75613404  F        0
H        6.55301950      -1.44431996       3.13509397  F        0
H       18.17502403      -1.06794529       2.66186474  F        0
H       18.05303809      -3.38514467      10.35989921  F        0
H        8.48702655      -5.84645393       8.80063176  F        0
H        5.86807409      -3.11655948      13.33116226  F        0
H        4.26454119      -3.12925301       9.87579966  F        0
H       15.72702256      -5.84736437       5.99260349  F        0
H       12.17714150      -5.84801228       6.40017283  F        0
H       14.11111956      -5.86251936      10.59245558  F        0
Fe       9.91867096       5.27747436       6.01265502  T        0
Fe      10.66057646       2.95436708       7.74079472  T        0
O       10.82616193       4.75753716       7.51248470  T        0
