135
Lattice="24.397 0.0 0.0 0.0 24.397 0.0 0.0 0.0 24.397" Properties=species:S:1:pos:R:3:move_mask:L:1:tags:I:1 i=41 E=-6943.8331748197 regions="_JSON [\"Active\"]" n_terminators=24 energy=-949.2112322811045 pbc="F F F"
O        9.42547819      14.61443701      -0.11736602  T        0
O       12.33689264       9.46022395       2.56880588  T        0
O       14.72832512      20.85449765       6.04008031  T        0
O       12.30543573      15.73868594       8.79528381  T        0
O        9.66530244      18.38565738       3.76536910  T        0
O       15.68817864       9.40659529       6.08146613  T        0
O       18.74500277      14.85926045       8.48925573  T        0
O       18.63701703      20.76481660       2.68796007  T        0
O       14.80588521       9.53661816       0.04497087  T        0
O        9.61122795      12.14233988       2.61857907  T        0
O       15.68405799      12.21294607       8.88919336  T        0
O       18.68794196       9.75554949       3.41627082  T        0
O        9.61153257      15.76644362       6.11808139  T        0
O       14.83202900      18.19935239       8.83588139  T        0
O       12.13648795      20.92777079       3.76137763  T        0
O       15.60889303      21.02141902      -0.14993886  T        0
O       11.46754246      13.92718504       1.86822715  T        0
O       14.05896304      11.40011168       1.82776779  T        0
O       13.14800571      20.13725488       8.08069300  T        0
O       10.32479664      17.41488920       8.11894332  T        0
O       10.07912042      20.46952406       5.43783239  T        0
O       16.65937370      19.28360005       1.64660515  T        0
O       10.34951136      10.16626705       0.94147953  T        0
O       11.46697541      16.44103926       4.32966519  T        0
O       14.12809024      18.85015655       4.32622953  T        0
O       14.10013757      16.48611207       6.91368314  T        0
O       16.67244383      11.26320367       4.38948111  T        0
O       16.67333019      13.90456228       7.04390637  T        0
O       12.11791318      11.97299799       3.52829341  T        0
O       12.22070477      21.80341670       6.28039204  T        0
O       12.28921087      18.24252272       9.69815594  T        0
O        8.73061292      18.31000594       6.23990082  T        0
O       18.26195987      18.19505004       3.53502037  T        0
O       12.29163294       8.61333245       0.03796929  T        0
O        8.75763883      12.02298377       0.07976276  T        0
O       12.13061234      14.83238789       6.28869210  T        0
O       12.15264836      18.21547262       2.70014971  T        0
O       15.80823266      18.42849668       6.33157697  T        0
O       18.29459571      15.80378408       6.00669617  T        0
O       18.30677629      12.27366914       2.48573733  T        0
O       14.98860049      12.02855745       6.26848880  T        0
O       10.20756095      16.51617337       1.93576478  T        0
O       14.10201071      10.42645581       4.31887176  T        0
O       14.16726905      22.63669070       7.95341864  T        0
O       10.50973963      16.43970930      10.63187581  T        0
O        7.64267119      19.93046433       4.40637219  T        0
O       10.61053189      22.96403517       4.53712581  T        0
O       16.54906895      19.99314952       4.25575120  T        0
O       16.57879184      10.43282960       1.84956716  T        0
O       10.50814717      13.92457010       4.38487482  T        0
O        7.81907903      16.37440800       7.90483437  T        0
O       14.09696478      20.01008797      10.62396828  T        0
O       14.07509107      20.06699879       1.71751370  T        0
O        7.85457888      10.32017854       1.99325435  T        0
O       16.60668230      16.42914250       7.90136658  T        0
O       14.08825838      13.98092548       7.85099376  T        0
O       10.54062281       7.61803790       1.82498860  T        0
Al      10.68535605      15.23582084       0.87079455  T        0
Si      13.14029180      10.79538061       3.06455887  T        0
Si      13.56384041      21.37175415       7.08641287  T        0
Si      11.34487493      16.96745299       9.31906486  T        0
Si       9.04745441      19.29715623       4.97315886  T        0
Si      17.53511562      19.56968946       3.00111584  T        0
Si      15.31091426      10.83117614       0.90685378  T        0
Si      10.91665975      12.98896583       3.10353414  T        0
Si       9.11542811      16.98467241       7.10606888  T        0
Si      13.58704743      19.16310476       9.31335801  T        0
Si      11.26836305      21.52078432       4.97449054  T        0
Si      15.31302650      19.69245181       0.78325914  T        0
Si       9.13169411      11.15917343       1.39438386  T        0
Si      10.90523093      15.21429619       5.29589402  T        0
Al      13.07948632      19.68170502       3.06023206  T        0
Si      15.35392533      17.39713725       7.50720394  T        0
Si      17.57686352      10.92288669       3.06407160  T        0
Si      15.36540586      13.03225308       7.49668768  T        0
Si      11.36318083       8.95423616       1.34070352  T        0
Si      15.37023556      10.80043030       5.26747006  T        0
Si      17.59030781      15.22552610       7.37011435  T        0
Si      15.32283856      19.54703076       5.24407384  T        0
Si      10.79382465      17.42025251       3.11455507  T        0
Si      13.15409341      15.25927121       7.48281022  T        0
O       14.68925567      12.26638976      -2.57852160  T        0
O       15.73827291      18.20270115      -2.80351422  T        0
O       12.21421781      14.61986497      -2.53581532  T        0
O       18.59443240      15.59690556      -2.52569245  T        0
O       14.10014253      14.04101487      -0.63399433  T        0
O       16.62069791      16.50556027      -0.90755841  T        0
O       13.07723247      10.23733117      -1.89408318  T        0
O       10.13075498      12.92442710      -2.03239957  T        0
O       12.20213441      15.60590486      -0.01572934  T        0
O       15.72749626      12.04434529      -0.10302856  T        0
O       18.35490532      14.64924189       0.02204848  T        0
O       14.96446261      18.40636945      -0.18505118  T        0
O       12.18768658      12.14766750      -3.50099753  T        0
O       16.56759008      13.98404334      -1.74672683  T        0
O       14.07646701      10.44362543      -4.41083882  T        0
O        7.48466881      13.43439885      -1.61393881  T        0
O       14.06666024      16.45468406      -1.79265079  T        0
O       10.48964065      14.03146678      -4.45899572  T        0
O       14.11781559       7.73811995      -1.75360561  T        0
Si      15.30663322      13.06080968      -1.29398460  T        0
Si      15.35175971      17.41642711      -1.40666348  T        0
Si      13.09928107      15.23336561      -1.31744548  T        0
Si      17.56152343      15.22353677      -1.29416486  T        0
Si      13.56194537       9.02554425      -0.90044077  T        0
Si      11.23197084      13.42139719      -3.12237662  T        0
Si       8.96708769      13.29546569      -0.92061387  T        0
Si      13.49702867      11.25440204      -3.10487511  T        0
H       16.48559112       9.33840607       6.62628668  F        0
H       18.82464116      14.01032609       8.95915608  F        0
H       18.82463422      21.15752504       1.81198193  F        0
H       16.48560162      11.67124930       8.95913012  F        0
H       18.82463962       9.33839646       4.28720704  F        0
H       16.48550522      21.15749796      -0.52720744  F        0
H       19.09683476      17.79487503       3.24462109  F        0
H       19.09684364      15.44301376       5.59651532  F        0
H       19.09682945      12.70103459       2.85456062  F        0
H       13.68673605      23.15239550       8.63276462  F        0
H        9.66477675      16.80915558      10.95402362  F        0
H        7.34351903      20.83116256       4.61081863  F        0
H        9.66481601      23.15243056       4.61081458  F        0
H        7.34350493      16.80917637       8.63275504  F        0
H       13.68672539      20.83112809      10.95404502  F        0
H        7.34352333       9.66479174       1.48837704  F        0
H        9.66479163       7.34352337       1.48837704  F        0
H       16.48557283      18.82464187      -2.86023677  F        0
H       18.82464171      16.48557294      -2.86023676  F        0
H       19.09678362      15.05286173       0.50248505  F        0
H       13.68673308       9.66480596      -4.85513656  F        0
H        7.34352146      13.68671965      -2.53387758  F        0
H        9.66480591      13.68673318      -4.85513656  F        0
H       13.68671953       7.34352150      -2.53387758  F        0
Fe      13.46393474      14.51301014       1.48769356  T        0
Fe      13.60917255      16.91786301       3.77628659  T        1
O       14.19726517      15.40380528       2.90803690  T        2
