111
Lattice="20.102 0.0 0.0 0.0 19.731 0.0 0.0 0.0 13.253" Properties=species:S:1:pos:R:3:move_mask:L:1:tags:I:1 i=77 E=-3472.0240129048 regions="_JSON [\"Active\"]" n_terminators=26 energy=-746.3596734260445 pbc="F F F"
O       10.13870020       1.17068891       9.63533465  T        0
O       10.21846587       8.64835803       9.73472332  T        0
O       10.06960482      11.31164290       3.61410660  T        0
O        7.66607892       1.09097251      10.46250239  T        0
O        2.11906736      10.97706806       3.96212397  T        0
O        7.93184185       9.32324567      10.86330507  T        0
O        8.12906963       2.18899728       8.07967216  T        0
O        7.70724057       8.13223900       8.58857418  T        0
O        8.38869182      -0.47966726       8.41721400  T        0
O        8.80107563      10.43917942       8.40512159  T        0
O        6.47877286       1.24639715      12.79153541  T        0
O        3.90093464      10.69773345       5.90838305  T        0
O        6.17244068       9.17158378      12.91249303  T        0
O        3.70622823       8.80071688       4.05205848  T        0
O        5.86286980      10.97658667      10.92278149  T        0
O        5.02475286       0.78726135      10.54801803  T        0
O        4.76176894      11.14944075       3.43224775  T        0
O        5.44587652       8.35729652      10.49427323  T        0
O        4.30313385      12.40188389       8.27073291  T        0
O        5.84390270       7.34383275       1.57221695  T        0
O        6.41216646      10.55692079       7.21107351  T        0
O        3.94804914       8.60293458       0.08268407  T        0
O        4.06213168       9.61226408       8.51243484  T        0
O        5.91436424       9.99557144       1.36573521  T        0
O        8.07766676      12.80021013       7.69974072  T        0
O        8.55848170      10.93492228       5.79582700  T        0
O        2.49332994       1.62154309      10.04077206  T        0
O        7.44562058      10.97847913       3.34953421  T        0
O        2.81001472       8.38032875      10.64021686  T        0
O        8.95693113       8.91802007       4.14212952  T        0
O        4.39732071       2.38419997       8.51723059  T        0
O        6.20613328      12.63434960       1.72339678  T        0
O        4.22451980       6.96608159       8.73138885  T        0
O        9.93289188      12.62723644       9.78324769  T        0
O       10.14468071       6.47707365       4.01583230  T        0
O        2.23564010       6.53466061       3.84532148  T        0
O        7.38787741      13.09534295      10.21783866  T        0
O        9.03739103      14.95249280       9.04267328  T        0
O        3.50168928       7.01133427       6.08470927  T        0
O        6.56740360      12.92239922      12.66600624  T        0
O        3.46705385       2.53282659       6.02843443  T        0
O        4.94591468       6.46339150       3.92208594  T        0
O        4.72973141      13.33060095      10.73880509  T        0
O        4.30251746       4.73203562       7.31749784  T        0
O        6.02123084       6.70331748       6.76722097  T        0
O        6.05629015       2.84610850       6.51938395  T        0
O        8.18945978       4.36445340       6.33456876  T        0
O        8.39258361       7.18374731       6.04058560  T        0
O        8.30194544       1.88315823       5.46848993  T        0
O        7.56832913       6.72469841       3.53184243  T        0
O        2.18430588      13.28104850       9.81731868  T        0
O        3.94445640      14.94291815       8.73047366  T        0
O        6.19330345       4.82691336       2.18611678  T        0
Si       8.58945402       1.01183967       9.11748365  T        0
Si       8.69050506       9.13820481       9.39705167  T        0
Si       6.42748698       0.48665332      11.33758165  T        0
Si       3.62011703      10.42520958       4.36132214  T        0
Si       6.37554211       9.50146976      11.34483594  T        0
Al       4.59602951      10.91528492       7.46657897  T        0
Si       5.51531758       8.61082207       0.60353044  T        0
Si       7.93161463      11.23917953       7.26765323  T        0
Si       8.75234173      10.53711335       4.20950008  T        0
Si       3.91270467       1.11191432       9.40664785  T        0
Si       6.07355920      11.17684339       2.47191830  T        0
Si       4.03226349       8.41542386       9.53726996  T        0
Si       8.60602127      13.37970491       9.17518006  T        0
Si       3.59592207       7.22736527       4.44950013  T        0
Si       6.13071281      12.59974185      11.11758206  T        0
Si       4.48063969       6.32963291       7.19986211  T        0
Si       4.56703423       3.12856874       7.09258527  T        0
Al       7.64850566       5.83063086       7.08241637  T        0
Si       7.69523205       2.85805912       6.65620146  T        0
Si       8.79505763       7.31199598       4.43576287  T        0
Si       6.14834987       6.34138309       2.81378976  T        0
Si       3.77419249      13.43827560       9.37988445  T        0
O        5.72165933       7.25034922      14.63555083  T        0
O        3.84708924       9.26567471      14.31383848  T        0
O        6.13118693       9.72549521      15.56914061  T        0
Si       5.44534359       8.84974775      14.35911805  T        0
O        6.46031609       8.42147429      -0.72583979  T        0
O        6.55746021      -1.13418064      11.62686450  T        0
O        3.62972759      -0.23812779       8.49387405  T        0
H       10.95532306       1.01526715       9.12727255  F        0
H       10.95532307       8.85008497       9.12727255  F        0
H       10.94686465      11.30097846       4.04088346  F        0
H        1.81269882      11.30123319       3.09859993  F        0
H        7.75918006      -0.57216837       7.68608506  F        0
H        6.01931354       0.95312461      13.59787507  F        0
H        3.12887899       8.92429365       0.49683426  F        0
H        1.92726146       1.06764952      10.59110356  F        0
H        1.92726146       8.79770260      10.59110356  F        0
H        5.53537813      12.95496052       1.09262639  F        0
H       10.76020325      12.42648900       9.31164420  F        0
H       11.09748793       6.69447189       4.02620164  F        0
H        2.04924741       6.48050321       2.89306910  F        0
H        8.48702655      15.71151028       8.80063176  F        0
H        5.86807409      12.98161584      13.33116226  F        0
H        3.68470477       2.53683452       5.08310689  F        0
H        8.61892989       2.44869843       4.74740482  F        0
H        1.73086689      12.60761804      10.35624453  F        0
H        4.05997682      15.72757570       9.28699687  F        0
H        5.99116592       4.00312854       2.66051272  F        0
H        6.01932001       6.80354450      15.45091456  F        0
H        3.12887899       8.92429365      13.74983426  F        0
H        5.93864452      10.64983954      15.80845558  F        0
H        6.58577874       9.14969547      -1.35751146  F        0
H        6.45001594      -1.80559776      10.93294989  F        0
H        4.32395248      -0.66310163       7.96405278  F        0
Fe       6.53721893       6.78059539       9.60325726  T        0
Fe       6.92334535       8.57330945       6.77837331  T        1
O        7.42242036       5.43222170       8.76401517  T        2
