141
Lattice="19.123 0.0 0.0 0.0 14.277 0.0 0.0 0.0 7.5465" Properties=species:S:1:pos:R:3:move_mask:L:1:tags:I:1 i=128 E=-2603.9155142701 regions="_JSON [\"Active\"]" n_terminators=32 energy=-955.4097497352001 pbc="F F F"
O        6.10439968       1.12893689       1.49664222  T        0
O       15.73662875       8.46229664       5.90495763  T        0
O       13.04136863       1.14767376       1.48640098  T        0
O        3.55601321       8.47887891       5.83868735  T        0
O        6.11163119      13.14513845       1.50717335  T        0
O       15.72563327       5.77708678       5.87842459  T        0
O       12.82906777      13.06583949       2.01157362  T        0
O        3.55423637       5.79594825       5.83952151  T        0
O       13.05547658      13.12780159       6.04329573  T        0
O        3.43780911       5.79483261       1.66759229  T        0
O        6.27112893      13.09586251       5.77666231  T        0
O       15.69183534       5.79544083       1.78100034  T        0
O       13.01779345       1.13066012       6.03091304  T        0
O        3.43992037       8.48584926       1.68990616  T        0
O        6.26880011       1.17467427       5.79030718  T        0
O       15.62581263       8.49167068       1.71664617  T        0
O        7.23792165       3.42721221       2.46635809  T        0
O       17.17163420      10.74867505       6.12329807  T        0
O       11.92788658       3.47382646       2.45121802  T        0
O        1.98714257      10.67462040       6.15972723  T        0
O        7.24413418      10.84124893       2.46841663  T        0
O       17.16022056       3.48945078       6.11731786  T        0
O       11.83098921      10.65808542       2.34367643  T        0
O        1.98904583       3.59108482       6.12505913  T        0
O       11.95919275      10.82525831       5.00971069  T        0
O        1.98816556       3.51270763       1.43605926  T        0
O        7.21661999      10.65506899       5.09306889  T        0
O       17.17827934       3.56873809       1.41846411  T        0
O       11.90660901       3.43591502       5.07632422  T        0
O        1.98912110      10.76663455       1.44004842  T        0
O        7.23504805       3.60362855       5.09218481  T        0
O       17.03282720      10.76013734       1.36252691  T        0
O        6.69446731       3.21629420      -0.05134481  T        0
O       16.11694228      10.08602408       3.80642316  T        0
O       12.54441957       3.32195883      -0.04793623  T        0
O        3.06213063      10.13238287       3.78693569  T        0
O        6.68156862      11.05190957      -0.04568525  T        0
O       16.12111543       4.12193469       3.79922386  T        0
O       12.72448925      11.33398225      -0.08720114  T        0
O        3.07780831       4.15512025       3.77232822  T        0
O        4.65708679       3.39197901       1.76049501  T        0
O       14.49877356      10.85813501       5.78924866  T        0
O       14.51545287       3.38477758       1.78576453  T        0
O        4.63563910      10.95052184       5.80242827  T        0
O        4.65749191      10.88895603       1.78434654  T        0
O       14.48386665       3.38350055       5.77464457  T        0
O       14.44726845      10.89457539       1.87863213  T        0
O        4.64584636       3.33110869       5.78888768  T        0
O       11.25527812       8.48109629       3.78841487  T        0
O        7.95060530       8.46595145       3.61339938  T        0
O       11.28394001       5.74088138       3.77558698  T        0
O       17.29090571      13.10143291      -0.04944879  T        0
O        7.95440274       5.79423364       3.61804222  T        0
O        9.57309892      10.53758470       3.78664492  T        0
O        9.57988265       3.71187128       3.75059192  T        0
O       13.55515972       7.13535953       5.10876436  T        0
O        5.81792240       7.13366293       5.21359868  T        0
O        5.65315481       7.13085877       2.39918225  T        0
O       13.35524298       7.10801676       2.31113017  T        0
O       14.14458310       7.02803631      -0.05269912  T        0
O        4.99985443       7.15493321      -0.09477721  T        0
Si       6.13955024       2.78551894       1.43747527  T        0
Si      15.85965559      10.02735123       5.43426370  T        0
Si      13.02233579       2.80130330       1.45010494  T        0
Si       3.32117988      10.04310605       5.40926879  T        0
Si       6.14012962      11.48814889       1.44642205  T        0
Si      15.85247859       4.20893560       5.42147869  T        0
Si      12.96824082      11.49502610       1.52931239  T        0
Si       3.32817722       4.23466135       5.39555807  T        0
Si      13.01202246      11.47509067       6.09097734  T        0
Si       3.30037642       4.23213459       2.14452335  T        0
Si       6.16708572      11.46348644       6.06379961  T        0
Si      15.87074430       4.19906217       2.19354894  T        0
Si      12.99585818       2.78493342       6.10643003  T        0
Si       3.29722600      10.05026194       2.15981528  T        0
Si       6.17300581       2.81016224       6.06228253  T        0
Si      15.81494240      10.06765372       2.20700218  T        0
Si      11.15830160      10.12993108       3.75796730  T        0
Si       7.97982433      10.12292250       3.74221784  T        0
Si      11.17113351       4.09765574       3.77615356  T        0
Si      17.55802669      11.46275782      -0.04426477  T        0
Si       7.98751106       4.13689824       3.73555190  T        0
Si      14.79517721       7.12150647       6.12669610  T        0
Si       4.48950241       7.13697675       6.11551367  T        0
Si       4.37706287       7.14160270       1.43509417  T        0
Si      14.79299511       7.11526329       1.52284077  T        0
Al      12.40153805       7.12044537       3.85873419  T        0
Al       6.71894749       7.13026210       3.74734378  T        0
O       19.15775860      11.17918012      -0.29088399  T        0
O        6.70466835       3.15925194       7.58378453  T        0
O       12.45195225       3.22718928       7.59212690  T        0
O        6.70399369      11.12112705       7.58509522  T        0
O       12.46240091      11.04295732       7.58424533  T        0
O       14.13448861       7.10728540       7.63597867  T        0
O        5.04711074       7.13687420       7.67103042  T        0
O       15.40849864       8.45176059      -1.96856488  T        0
O       15.77537062       5.86234985      -1.95018667  T        0
O       12.80880837      13.07631768      -2.17107517  T        0
O       16.75702507      10.69751513      -1.27236722  T        0
O       11.57750122      10.67088677      -2.35759012  T        0
O       16.34698028      10.17673051      -3.82859161  T        0
O       14.26512720      10.82167637      -2.23310092  T        0
O       13.20039682       6.82207811      -2.37588036  T        0
Si      15.69667867      10.04560468      -2.32354064  T        0
Si      12.86262507      11.48731291      -1.71731220  T        0
Si      14.67276217       7.04188047      -1.65746617  T        0
H        5.61083456       0.52083913       2.07985367  F        0
H       13.50938118       0.51971906       2.07492992  F        0
H        5.61112307      13.75835362       2.07975607  F        0
H       13.50958039      13.75682243       2.07498241  F        0
H       13.51084140      13.75504172       5.44776650  F        0
H        5.62495998      13.75277707       5.44935724  F        0
H       13.50975252       0.52161770       5.44778410  F        0
H        5.62509051       0.52255101       5.44942550  F        0
H       17.28974254      11.12548174       7.01862795  F        0
H        1.83343022      11.12554006       7.01950242  F        0
H       17.28979000       3.14560285       7.02339196  F        0
H        1.81954193       3.15353441       6.98813474  F        0
H        1.83183800       3.14857954       0.53722786  F        0
H       17.29134854       3.14797220       0.53999843  F        0
H        1.83154049      11.12909684       0.54034962  F        0
H        6.35952436       2.97904956      -0.93427223  F        0
H       12.76076393       2.97683097      -0.93375646  F        0
H        6.36236324      11.29726414      -0.93275871  F        0
H       16.56020813      13.76127004      -0.00066979  F        0
H        4.51175007       7.13509558      -0.92932085  F        0
H       20.08739461      11.34211663       0.00099186  F        0
H        6.35949513       2.97597070       8.47938261  F        0
H       12.76321398       2.97604733       8.47995589  F        0
H        6.35946036      11.30224636       8.48133548  F        0
H       12.76333233      11.30075111       8.47967776  F        0
H       14.61405599       7.13800201       8.47661577  F        0
H        4.50898861       7.14016697       8.47499567  F        0
H       15.75636517       4.89339805      -2.09021006  F        0
H       13.51084140      13.75504172      -2.09873350  F        0
H       11.39521725      10.28762784      -3.24237523  F        0
H       15.92569105      10.11584057      -4.70878458  F        0
H       12.88191441       7.13773895      -3.23957932  F        0
Fe       9.57443156       7.12478698       2.92642849  T        0
Fe      12.03904510       7.00031239       0.67089431  T        1
O       10.32685867       7.05564339       1.18073090  T        2
