123
Lattice="24.397 0.0 0.0 0.0 24.397 0.0 0.0 0.0 24.397" Properties=species:S:1:pos:R:3:move_mask:L:1:tags:I:1 i=41 E=-6943.8331748197 regions="_JSON [\"Active\"]" n_terminators=28 energy=-831.5079582642834 pbc="F F F"
O       21.79496818       2.37063383       0.02933897  T        0
O       22.01032135       6.08333049       3.78958141  T        0
O       15.80366434       9.80545057       6.17763480  T        0
O       20.92464326      12.37814189       3.64903401  T        0
O       21.86686039      -0.11665843       2.55681437  T        0
O       18.29741558       9.71066238       3.47269427  T        0
O       21.79629322       3.36529428       6.27755301  T        0
O       23.82946390       1.59937010       2.00975240  T        0
O       22.74043718       5.32730153       7.82408707  T        0
O       22.60046036       8.12018202       5.65353753  T        0
O       17.71676516      10.36024434       8.03052098  T        0
O       20.18410083      10.42621311       5.26021185  T        0
O       23.68640389       4.12175471       4.56592300  T        0
O       18.90524451      14.09309828       4.29317151  T        0
O       16.35681146      11.46205140       4.13453753  T        0
O       20.70491025       5.86878437       6.31633631  T        0
O       18.27837124       8.76249125       5.99958407  T        0
O       21.98758775      12.25587745       6.16404666  T        0
O       20.83633804      -0.11537054       0.03063411  T        0
O       24.30080455       2.27099528       6.40501875  T        0
O       24.48680360       6.01631234       2.77786780  T        0
O       18.41815326      12.21729661       2.59601693  T        0
O       14.67547520      12.27753367       6.10224480  T        0
O       22.76256747       4.25932109       2.01915468  T        0
O       13.89402778      10.39707725       4.37984595  T        0
O       20.18046788       7.96555430       4.16778746  T        0
O       16.50236288       7.88284077       7.86917993  T        0
O       22.73009311      10.49128916       4.41855467  T        0
O       20.23134631      14.11310792       1.85319660  T        0
O       16.63887179      10.46886493       1.59703351  T        0
O       22.65785429       1.62345942       4.43842754  T        0
O       20.31547379       4.09978509       8.33736462  T        0
Al      23.13234954       2.82326965       1.01280202  T        0
Al      21.36899088       6.99995176       5.20411032  T        0
Si      17.06901545       9.19592502       7.04345514  T        0
Si      21.44474854      11.40478144       4.86814873  T        0
Si      23.16362845       0.68508646       3.17392373  T        0
Si      19.21716679       9.22016568       4.73110172  T        0
Si      21.35659871       4.67249253       7.19041070  T        0
Si      23.59042113       9.19629930       4.97822087  T        0
Si      23.09842414       2.83375639       5.43714855  T        0
Si      17.39599947      10.98929776       2.95849002  T        0
Si      15.19532533      10.99261629       5.20542079  T        0
Si      19.62089548      13.21438745       3.08908403  T        0
Si      23.23212226       5.08029769       3.34916342  T        0
O       27.16121804       8.56470563       6.34246189  T        0
O       30.86074323       8.55586120       2.68766712  T        0
O       24.35151152       8.55199126       3.64461450  T        0
O       27.90476983       8.86154835       0.05604889  T        0
O       25.07306742       7.90994944       7.95194027  T        0
O       28.81016863       7.03414553       1.80947682  T        0
O       26.35338759       6.92903117       4.40240747  T        0
O       24.72901281       9.67522242       6.05420193  T        0
O       30.51881735       6.02088511       3.63626830  T        0
O       28.15345371       6.04565492       6.20285000  T        0
O       26.40679895      10.32964272       8.09605302  T        0
O       28.85260055       7.84215834       4.37534932  T        0
O       26.22598030       7.80947645       1.85573805  T        0
Si      25.83154756       9.12711091       7.13205430  T        0
Si      29.77461017       7.38014535       3.09604002  T        0
Si      27.52983698       7.49332129       0.90423580  T        0
Si      25.37150251       7.36542906       3.18333373  T        0
Si      27.63018153       7.35139680       5.35031917  T        0
O       26.95795050      -0.09723406      -2.36671900  T        0
O       27.85205866       6.15876402      -2.68743493  T        0
O       24.28923861       2.57392095      -2.49246638  T        0
O       30.32976021       3.59633931      -2.83363326  T        0
O       26.20163043       1.92790409      -0.76136622  T        0
O       28.74450339       4.35325004      -0.80889691  T        0
O       31.04745704       2.91628416      -0.43630351  T        0
O       27.09519001       6.27038528      -0.09136571  T        0
O       24.49816218       0.07439991      -3.43781309  T        0
O       28.76052435       1.81098569      -1.57591889  T        0
O       26.19379695       4.39917194      -1.76424451  T        0
Si      27.44350881       0.90987515      -1.15375776  T        0
Si      27.50448887       5.28679021      -1.33918399  T        0
Si      25.24271065       3.15136297      -1.29251959  T        0
Si      29.71242321       3.13922790      -1.36960116  T        0
O       25.00413931      -1.91229104      -1.82896143  T        0
O       27.93017257       0.07221399       0.17982592  T        0
O       26.26277033      -1.82441789      -4.28309887  T        0
Si      25.68558991      -0.96079671      -2.99360870  T        0
O       22.33645437       0.74156851      -2.02586003  T        0
O       24.27790719       3.76869869      -0.07725101  T        0
O       19.84646198       1.73763973      -1.64626687  T        0
O       22.70828777       1.80675529      -4.47887031  T        0
Si      23.44216742       1.28433447      -3.09636536  T        0
Si      21.21156496       1.18912648      -0.89926406  T        0
O       22.59870138      -1.89049639       0.60743463  T        0
O       24.24246359      -0.38208934       3.82137892  T        0
O       20.16598604      -1.94408486       1.94321992  T        0
Si      21.36362069      -1.02373989       1.28578249  T        0
H       23.12591797       5.02704618       8.65412107  F        0
H       17.22544067      10.92750153       8.65411313  F        0
H       19.36965547      14.75328399       4.82834093  F        0
H       21.54216027      12.99764967       6.60187561  F        0
H       24.89951425       2.85451703       6.89840128  F        0
H       15.05290853      12.70105704       6.89848521  F        0
H       13.44269068      10.71000821       3.56560630  F        0
H       16.80917625       7.34350499       8.63275504  F        0
H       19.78591980      14.73191782       1.24430354  F        0
H       15.76397041      10.70999753       1.24433830  F        0
H       19.54188528       4.61080343       8.63276969  F        0
H       31.02329611       8.95915360       1.81197192  F        0
H       28.68412771       8.95914275      -0.52719976  F        0
H       25.46913506       7.37002876       8.65411313  F        0
H       31.29548824       5.59652281       3.24465287  F        0
H       27.64165227       5.59652304       6.89848956  F        0
H       25.88537327      10.95404844       8.63278900  F        0
H       28.68420928       6.62630035      -2.86021198  F        0
H       31.02330028       4.28720931      -2.86021198  F        0
H       31.29540115       2.85451753       0.50251718  F        0
H       25.46914020      -2.55519498      -1.27110165  F        0
H       27.64167971      -0.79949483       0.50250286  F        0
H       25.88539893      -2.53384478      -4.85512307  F        0
H       19.54187345       1.48839893      -2.53384082  F        0
H       21.86315508       1.48839893      -4.85512307  F        0
H       23.12589418      -2.55519498       1.07214050  F        0
H       24.89950013      -0.79949361       3.24468082  F        0
H       19.54187317      -2.53384464       1.48839915  F        0
Fe      21.28790505       7.41907977       2.39014829  T        0
Fe      23.40673806       5.63602760       0.53832443  T        1
O       22.22287414       7.04023246       0.84915934  T        2
