135
Lattice="19.123 0.0 0.0 0.0 14.277 0.0 0.0 0.0 7.5465" Properties=species:S:1:pos:R:3:move_mask:L:1:tags:I:1 i=128 E=-2603.9155142701 regions="_JSON [\"Active\"]" n_terminators=32 energy=-907.2405031767582 pbc="F F F"
O        6.25896363       1.25010339       1.97431227  T        0
O       15.63508246       8.46754882       5.92446121  T        0
O        3.32530177       8.54478220       5.87022610  T        0
O        6.13025685      13.16281597       1.50581055  T        0
O       15.83738154       5.86784628       5.46075256  T        0
O       13.32904864      13.12525993       1.35120811  T        0
O        3.25851112       5.84536241       5.83243311  T        0
O       13.16959019      13.12982621       6.11616113  T        0
O        3.44419341       5.78924294       1.74757816  T        0
O        6.11549152      13.13891195       6.02982269  T        0
O       15.96866959       5.79380371       1.76058653  T        0
O        3.59630777       8.47491259       1.87858927  T        0
O        5.73560237       1.11975581       6.21082266  T        0
O       15.77649652       8.43806280       1.59860262  T        0
O        7.22825294       3.78173626       2.13810324  T        0
O       17.22401099      10.63498284       6.17215219  T        0
O       12.23233120       3.17479577       2.85283733  T        0
O        2.04852557      10.92834651       6.08642142  T        0
O        7.20326551      10.84331834       2.46919814  T        0
O       11.97839780      10.97630443       2.39459929  T        0
O        1.91630841       3.51715706       6.08628619  T        0
O       11.94324920      10.82681990       5.27739225  T        0
O        2.02732690       3.53241523       1.33887724  T        0
O        7.34899303      10.88159703       5.10457905  T        0
O       11.65122860       3.65162594       5.36752997  T        0
O        1.98185499      10.58255680       1.34155941  T        0
O        7.11197843       3.14580501       4.99339787  T        0
O       17.24838562      10.68814068       1.41324402  T        0
O        6.38316919       2.90114080      -0.19060959  T        0
O       16.33989299       9.90038550       3.77522370  T        0
O        3.02327571      10.21473630       3.77146410  T        0
O        6.66101370      11.03228902      -0.04535198  T        0
O       13.03214805      10.88679146      -0.09695054  T        0
O        3.01547758       4.12802720       3.77991314  T        0
O        4.61840855       3.38242537       1.76156266  T        0
O       14.60379022      10.91856658       5.49799674  T        0
O        4.73741036      10.82466005       5.71204176  T        0
O        4.61902490      10.95326146       1.74955083  T        0
O       14.59741205      10.82248138       1.99533166  T        0
O        4.61909009       3.54355641       5.84935478  T        0
O        1.80675338       1.14409013       0.02859681  T        0
O       11.60778612       8.34324344       3.60740674  T        0
O        7.33454218       8.52296631       3.80275105  T        0
O       11.68101075       5.73145713       3.64452375  T        0
O        7.48712965       5.84007422       3.86700490  T        0
O       -0.05338057       3.04842682      -0.35175454  T        0
O        9.49638619       9.92977312       3.61563674  T        0
O        9.68383015       3.99832517       3.63144922  T        0
O       13.45713061       7.10735409       5.16353540  T        0
O        5.40420380       7.15341453       5.00415855  T        0
O        5.78098665       6.94266947       2.29751348  T        0
O       13.67377632       7.03565864       2.48749172  T        0
O       14.24981036       6.89760157      -0.05328313  T        0
O        4.77595933       7.15888458      -0.13649526  T        0
Si       6.10082937       2.79797967       1.41999181  T        0
Si      15.93828948       9.98994787       5.36338186  T        0
Si       3.29570919      10.11764742       5.38497983  T        0
Si       6.12638715      11.51167595       1.43489361  T        0
Si      13.19351357      11.46895291       1.44212699  T        0
Si       3.22589474       4.24835188       5.40761821  T        0
Si      13.18396505      11.46654823       6.11225380  T        0
Si       3.26310074       4.20746126       2.17039871  T        0
Si       6.18346644      11.48885433       6.09983575  T        0
Si       3.30747106      10.07069782       2.16713554  T        0
Si       6.03723759       2.74808101       6.12944671  T        0
Si      15.97297096       9.97121211       2.17645714  T        0
Si       1.53926699       2.78067347      -0.05594370  T        0
Al      11.33639957      10.16786171       3.79247962  T        0
Si       7.85555518      10.09539667       3.76708511  T        0
Si      11.28547686       4.12910176       3.83021926  T        0
Al       7.95582172       4.08423546       3.82971579  T        0
Si      14.84254845       7.04634331       6.06413609  T        0
Si       4.18596299       7.16602744       6.10174821  T        0
Si       4.35161704       7.10721774       1.43783821  T        0
Si      14.93477059       7.04517997       1.44456479  T        0
Si      12.64964513       7.04653541       3.74933320  T        0
Si       6.49084802       7.12606173       3.82132687  T        0
O        6.65176906       3.22010474       7.58489213  T        0
O        6.68965275      11.04743880       7.60005810  T        0
O       13.21242083      10.96044961       7.68810192  T        0
O       14.41149147       6.70766490       7.62126096  T        0
O        4.90219896       7.14806251       7.58181569  T        0
O        3.20034773       8.41971392      -1.96500018  T        0
O        3.49954051       5.80450978      -2.03718900  T        0
O        6.27244462       1.21604857      -2.31379868  T        0
O        7.54852703       3.45700838      -5.30495573  T        0
O        2.34899553       3.47543401      -1.30790600  T        0
O        7.47096609       3.53717703      -2.57975698  T        0
O        2.74333496       3.97143017      -3.87600827  T        0
O        4.83382969       3.51239026      -2.25717394  T        0
O        7.78483874       8.40104716      -3.89640065  T        0
O        7.29739794       5.80474456      -3.98239330  T        0
O        9.61544884       4.54080682      -3.96088855  T        0
O        5.61528596       7.37137919      -2.63518743  T        0
O        5.70522867       7.55065340      -5.33932563  T        0
Si       3.35765650       4.20136060      -2.36290121  T        0
Si       6.22793411       2.78946992      -1.82503443  T        0
Si       7.98976599       4.31184332      -3.95258375  T        0
Si       4.28373119       7.20104735      -1.71279740  T        0
Si       6.58527936       7.27599343      -3.96257943  T        0
H        5.61083456       0.52083913       2.07985367  F        0
H        5.61112307      13.75835362       2.07975607  F        0
H       15.75636517       4.89339805       5.45628994  F        0
H       13.50958039      13.75682243       2.07498241  F        0
H       13.51084140      13.75504172       5.44776650  F        0
H        5.62495998      13.75277707       5.44935724  F        0
H       15.75706449       4.89440344       2.08043705  F        0
H        5.62509051       0.52255101       5.44942550  F        0
H       17.28974254      11.12548174       7.01862795  F        0
H       12.44565577       3.15588527       1.90033815  F        0
H        1.83343022      11.12554006       7.01950242  F        0
H        1.81954193       3.15353441       6.98813474  F        0
H       12.44354748       3.15657450       5.63339447  F        0
H        1.83154049      11.12909684       0.54034962  F        0
H       17.29120144      11.12876736       0.54010345  F        0
H        6.36236324      11.29726414      -0.93275871  F        0
H       12.76174962      11.29928001      -0.93393629  F        0
H        2.56244240       0.51556882       0.00084209  F        0
H       -0.96435880       2.93479999       0.00082830  F        0
H       14.60982961       7.13673871      -0.92783774  F        0
H        6.35949513       2.97597070       8.47938261  F        0
H        6.35946036      11.30224636       8.48133548  F        0
H       12.76333233      11.30075111       8.47967776  F        0
H       14.61405599       7.13800201       8.47661577  F        0
H        4.50898861       7.14016697       8.47499567  F        0
H        3.36611374       9.37433505      -2.09115109  F        0
H        5.62509051       0.52255101      -2.09707450  F        0
H        6.67730558       3.15591219      -5.64675051  F        0
H        3.20026696       4.16316078      -4.71757657  F        0
H        7.80714812       9.37398274      -3.78410482  F        0
H       10.52510559       4.20251023      -3.78397245  F        0
H        4.87243006       7.14046961      -5.64294599  F        0
Fe       9.82535942       7.97011122       2.66033633  T        0
Fe       7.64451511       5.75574132       1.62816406  T        1
O        8.95105423       7.00571344       1.37671273  T        2
