147
Lattice="19.123 0.0 0.0 0.0 14.277 0.0 0.0 0.0 7.5465" Properties=species:S:1:pos:R:3:move_mask:L:1:tags:I:1 i=128 E=-2603.9155142701 regions="_JSON [\"Active\"]" n_terminators=30 energy=-1012.0809388941899 pbc="F F F"
O       15.87438884       8.41535953       5.51263489  T        0
O       13.01358658       1.34985020       1.76689856  T        0
O       15.33831894       5.87712077       5.87744792  T        0
O       15.77569375       5.86175692       1.58807859  T        0
O       12.84113174       1.05021268       5.92867039  T        0
O       15.93848329       8.43606214       1.93595490  T        0
O       11.71881736       3.62133972       2.38452450  T        0
O       17.03664051       3.38167791       6.19643044  T        0
O       16.93872224       3.38461314       1.28084691  T        0
O       11.89216414       3.47143324       5.07630909  T        0
O       12.47417819       3.13087263      -0.16716240  T        0
O       16.07203645       4.14185003       3.63884562  T        0
O       14.31126943       3.66220746       1.65487955  T        0
O       14.50631622       3.03134214       5.61304695  T        0
O       11.40803558       8.44347554       3.47172205  T        0
O       17.30919089       1.25662583      -0.12407428  T        0
O       11.68173010       5.84007016       3.83807684  T        0
O        9.55391437       4.10588210       4.00562852  T        0
O       13.34700837       7.52569216       5.13415108  T        0
O       15.55867340       0.12402925       1.32620913  T        0
O       15.34058676       0.12291029       6.36684698  T        0
O       13.57395301       7.17033764       2.47466647  T        0
O       14.43009766       7.43636609      -0.06573273  T        0
O       14.47160668       0.22422341       3.96763998  T        0
Si      12.85864753       2.90953249       1.42911361  T        0
Al      15.75060743       4.31528180       5.35547052  T        0
Si      15.73622132       4.30915331       2.07933216  T        0
Si      12.95339713       2.69666494       6.05308504  T        0
Si      17.62726125       2.89070298      -0.17295300  T        0
Si      11.18016318       4.26815731       3.80255974  T        0
Si      14.72379693       7.35112628       6.03168679  T        0
Al      13.98433250       0.00324432       2.25966918  T        0
Si      13.92100989      -0.08775742       5.46189452  T        0
Si      14.89002799       7.24657310       1.50100630  T        0
Si      12.51631807       7.25151032       3.74533834  T        0
Si      16.31496222      -0.09877725      -0.12538717  T        0
O       19.20914574       3.18490687       7.91126970  T        0
O       21.26041047       3.87659196       1.23535527  T        0
O       21.19568798       1.26984213       0.39650598  T        0
O       19.24813743       3.05922596      -0.18440361  T        0
Si      20.89455947       2.84599050      -0.00422356  T        0
O       21.69867146       3.16505718      -1.41472674  T        0
O       19.19961646      -3.33772699       7.54542293  T        0
O       19.21851861      -3.28766541      -0.29030723  T        0
O       13.06042057       1.18411788       9.48962235  T        0
O       15.44578627       5.89163829       9.43273658  T        0
O       15.60227065       8.45814023       9.90266019  T        0
O       11.57157447       3.32065947      10.07562146  T        0
O       16.78897048       3.64893741       8.84674097  T        0
O       12.68383653       3.07857328       7.63190467  T        0
O       16.33819432       4.20531570      11.36694717  T        0
O       14.25890227       3.54548840       9.76568470  T        0
O       17.30590994       1.25009168       7.70898366  T        0
O       15.38072273      -0.08505328       9.00906164  T        0
O       13.12523346       7.23982278       9.83469366  T        0
O       14.37489828       7.62492519       7.61540790  T        0
O       14.59635273       0.01343411      11.42325097  T        0
Si      12.89837230       2.80818283       9.24408121  T        0
Si      15.69330276       4.33049445       9.85731835  T        0
Si      17.61255478       2.88665717       7.65431306  T        0
Si      14.00889583      -0.08823040       9.89330353  T        0
Si      14.64966730       7.30760527       9.19471340  T        0
Si      16.32862087      -0.05773948       7.70653247  T        0
O       15.62229029       8.44032367      -2.33190919  T        0
O       15.49397463       5.87141648      -2.00639666  T        0
O       13.05187398       1.17358986      -1.91428692  T        0
O       16.87216638       3.66181175      -1.36851442  T        0
O       11.66091357       3.17731334      -2.77301936  T        0
O       16.33166327       4.03095609      -3.83451108  T        0
O       14.28185336       3.52222297      -2.11067767  T        0
O       13.14879608       7.20716370      -2.30497067  T        0
O       15.31840540      -0.10448753      -1.38965139  T        0
O       14.54582145      -0.03122441      -3.86268789  T        0
Si      15.69759752       4.28903528      -2.34264176  T        0
Si      12.86490689       2.78973321      -1.72172648  T        0
Si      14.67847332       7.25725379      -1.67358764  T        0
Si      13.96312769      -0.11394625      -2.32437734  T        0
O       13.21424911      -1.49118961       9.61342765  T        0
O       11.60443522      -3.64338215       9.88640846  T        0
O       17.13110251      -3.76008033       9.04012842  T        0
O       12.85458462      -3.26062498       7.64210330  T        0
O       14.24304503      -4.01434813       9.87875764  T        0
O       17.20936295      -1.42328355       7.61940134  T        0
Si      13.00934177      -3.08342922       9.25976566  T        0
Si      17.60044882      -3.02916318       7.62123498  T        0
O       15.97915600      -6.10951157       5.67294202  T        0
O       13.26331363      -1.53945553       2.00155935  T        0
O       13.30141615      -1.55353297       5.68846174  T        0
O       15.97720398      -6.06580221       1.75354975  T        0
O       16.90422735      -3.68989082       6.29812382  T        0
O       11.83295936      -3.77071577       2.48439130  T        0
O       11.79448861      -3.70443305       5.17618453  T        0
O       17.04710321      -3.65522765       1.32717615  T        0
O       16.25698271      -4.23910473       3.75658078  T        0
O       12.64180500      -3.18670932      -0.00921365  T        0
O       14.35770712      -3.99838413       5.59578923  T        0
O       14.39570558      -3.94458610       1.83345171  T        0
O       11.33168980      -6.05305749       3.86855756  T        0
O       17.26463861      -1.41494242      -0.10802067  T        0
O        9.54416441      -4.00400672       3.92469443  T        0
Si      15.88010760      -4.50420103       5.32478563  T        0
Si      13.02355781      -3.07003724       1.58901127  T        0
Si      13.05307235      -3.13517938       6.02799054  T        0
Si      15.89887865      -4.46667985       2.16977598  T        0
Si      11.13067588      -4.40223384       3.83091180  T        0
Si      17.60666455      -3.03391447      -0.08493421  T        0
O       15.73142397      -6.07821068      -2.28792535  T        0
O       13.10858558      -1.47344074      -2.03967108  T        0
O       16.82882695      -3.77182547      -1.31330798  T        0
O       11.55865514      -3.67728769      -2.33177524  T        0
O       16.29599259      -3.95350712      -3.83286948  T        0
O       14.24567766      -3.87362063      -2.03769585  T        0
Si      15.75101661      -4.42842593      -2.35419019  T        0
Si      12.90052530      -3.04964000      -1.61385533  T        0
H       15.75671561       9.37610020       5.45468838  F        0
H       15.75699573       9.38061947       2.07980242  F        0
H       11.31595404       9.37380971       3.76235534  F        0
H        8.59637561       4.20354031       3.76204115  F        0
H       20.08726577       2.93486642       7.54597012  F        0
H       22.00636260       3.98381786       1.86150429  F        0
H       21.68544240       0.51556882       0.00084209  F        0
H       21.98145514       3.97853683      -1.88343379  F        0
H       20.08739461      -2.93488337       7.54749186  F        0
H       20.08739461      -2.93488337       0.00099186  F        0
H       15.75699573       9.38061947       9.62630242  F        0
H       11.39369377       3.98884644      10.77146895  F        0
H       15.92754156       4.15729643      12.25107281  F        0
H       12.88235039       7.13795337      10.76981689  F        0
H       14.07270598       0.00010018      12.23669175  F        0
H       15.75671561       9.37610020      -2.09181162  F        0
H       11.39412799       3.98861071      -3.24188863  F        0
H       15.92661844       4.15901570      -4.70770176  F        0
H       12.88191441       7.13773895      -3.23957932  F        0
H       14.07160463      -0.00015943      -4.71417255  F        0
H       11.39439525      -3.98966818      10.77116771  F        0
H       16.24088130      -3.98173953       9.41338238  F        0
H       15.20026252      -3.97967031       9.62683702  F        0
H       15.17320598      -6.62175386       5.84596239  F        0
H       15.17712900      -6.61799919       1.68693573  F        0
H       12.12595522      -6.62290057       3.76264176  F        0
H        8.59739021      -4.20337067       3.76217937  F        0
H       15.17320598      -6.62175386      -1.70053761  F        0
H       11.39521725      -3.98937216      -3.24237523  F        0
H       15.92569105      -4.16115943      -4.70878458  F        0
Fe      16.15325950       1.65520565       5.06633611  T        0
Fe      16.94520595       1.39288073       2.21046157  T        1
O       17.49196358       1.16579634       3.90342402  T        2
