133
Lattice="20.102 0.0 0.0 0.0 19.731 0.0 0.0 0.0 13.253" Properties=species:S:1:pos:R:3:move_mask:L:1:tags:I:1 i=77 E=-3472.0240129048 regions="_JSON [\"Active\"]" n_terminators=32 energy=-896.4501360291009 pbc="F F F"
O       10.27484811       8.20870943       8.73723539  T        0
O        9.89976248      11.26685218       3.91105080  T        0
O        8.26430082       8.82856866      10.36389176  T        0
O       12.12096035      11.09541627       2.51885386  T        0
O        7.85141967       7.31548189       8.09738514  T        0
O       12.08401663      12.58447220       4.78792545  T        0
O        8.34716420      10.01087887       8.10314179  T        0
O       11.86639022       9.91705034       4.93600524  T        0
O        3.47958858      10.27617637       6.18622650  T        0
O        6.55917315       8.90094555      12.89996472  T        0
O        5.91371595      19.09910606      10.89687131  T        0
O        6.99448959      10.98268943      10.86131673  T        0
O        5.35452315       8.56284602      10.26855668  T        0
O       15.17285023       8.54468010       9.04895289  T        0
O        3.79155684      12.41530304       7.89576156  T        0
O        4.25508395      17.09068288       7.81610812  T        0
O       14.58421216      12.39504815      11.75406969  T        0
O        5.86325177      10.77375592       7.34721096  T        0
O       14.29364199       9.22693926       5.47922362  T        0
O       16.14621422      10.79177438      13.26912301  T        0
O        3.70252308       9.94526306       8.72926048  T        0
O       14.51210720       9.77675696      11.39474897  T        0
O        7.72502546      12.60624808       7.86227611  T        0
O        8.09241103      17.25223476       7.62251554  T        0
O       12.31601999       7.36457961       5.37699198  T        0
O        7.90949647      11.05372347       5.68021840  T        0
O       12.38832039       9.11362512       7.40807466  T        0
O        7.44575675      10.95194557       3.02056003  T        0
O        2.65491724       8.17410710      10.41419742  T        0
O       12.71769292       8.43330247       9.93703815  T        0
O        8.62970888       8.91448995       4.26635182  T        0
O       11.14964311      10.56671240       9.38733733  T        0
O        4.05268502       7.34257740       8.29840306  T        0
O       14.67896343       7.06951629      11.23184148  T        0
O        9.88049869      17.24870093       9.72154576  T        0
O        9.71198610      12.67684596       9.55663816  T        0
O       10.24612983       6.86282477       3.72857549  T        0
O        7.36652395      16.90621881      10.25484264  T        0
O        7.32099314      13.50747929      10.37491281  T        0
O       12.74622082       6.38005845       2.85442037  T        0
O        8.65882386      15.03808407       8.73727213  T        0
O       11.73235045       4.89507726       4.85975354  T        0
O        6.15065735      17.00046788      12.65773532  T        0
O        3.41663117       6.65317704       5.73204963  T        0
O        6.10196119      12.73822265      12.64676604  T        0
O        4.67101861      16.87846792      10.50529086  T        0
O        4.82843681      12.58639722      10.31949247  T        0
O       14.86853859      12.80806473       9.08504946  T        0
O        3.99625562       4.83448841       7.62421301  T        0
O        5.90249217       6.46244972       6.54731667  T        0
O       14.11428497      13.77529989       6.13027037  T        0
O        7.82620970       4.77879891       7.44752553  T        0
O       11.76865792      14.91518685       6.02220209  T        0
O        8.33387442       6.62546426       5.55078077  T        0
O       11.90356868      12.62337345       7.42023796  T        0
O        2.17780528      16.77184481       9.51637698  T        0
O        7.73987989       6.71849441       2.91096102  T        0
O        2.25655131      13.34678668      10.02701896  T        0
O       12.51261061      13.10926380      10.18256109  T        0
O        4.04005208      14.82454157       8.98249852  T        0
O       14.49207578      14.86910863      10.87105528  T        0
Si       8.66993646       8.49797910       8.80072611  T        0
Si      11.53248542      11.24366039       4.05127482  T        0
Al       6.65355653       9.21214003      11.19459654  T        0
Si       4.22918384      10.87723670       7.51708292  T        0
Si      14.67937330      10.95724288      12.52488975  T        0
Si       7.44456866      11.11834403       7.22496529  T        0
Si      12.72081750       8.88296645       5.82893613  T        0
Si       8.48155833      10.53826230       4.22450001  T        0
Si      11.66891800       9.08822024       8.86329950  T        0
Si       3.96370049       8.49276877       9.46091327  T        0
Si      14.28626089       8.46960167      10.44998684  T        0
Si       8.48367887      16.63441396       9.09172346  T        0
Si       8.35040089      13.49858212       9.10354246  T        0
Si      11.75958869       6.39319567       4.17758088  T        0
Si       6.07105812      17.46810661      11.08897858  T        0
Si       6.27223052      12.45265379      11.06443818  T        0
Si       4.34361522       6.33905709       7.06160313  T        0
Si       7.48019745       6.28037003       6.88307574  T        0
Si      12.49744353      13.43144528       6.14313685  T        0
Si       8.71834981       7.29263778       4.10679693  T        0
Al      11.45512324      12.32753321       9.05667112  T        0
Si       3.76130703      16.41632093       9.23131634  T        0
Si       3.73123247      13.26621859       9.30307849  T        0
Si      14.08780055      13.31122009      10.47138632  T        0
O       13.50104980      10.82808289      13.66486511  T        0
O        4.97640418      11.11189363      17.54031996  T        0
O        5.44761056       7.20032352      14.76461399  T        0
O        4.03938507       9.10837731      13.46606942  T        0
O        5.87811298       9.76702779      15.36327319  T        0
O        7.49384677      11.49607946      16.75153825  T        0
O        5.71878591      12.46241083      15.27692270  T        0
O        5.88032859      16.99624475      15.33853840  T        0
O        5.31720840      14.82314677      14.02075752  T        0
O        3.67565740      16.93419923      13.76422613  T        0
O        3.64905631      12.68254580      13.80856597  T        0
Si       5.50549444       8.73390713      14.12793471  T        0
Si       5.97797157      11.15307536      16.22307850  T        0
Si       5.25058277      16.44852619      13.92712810  T        0
Si       5.20482082      13.20035800      13.93890786  T        0
H       13.03074804      10.85204106       2.26762503  F        0
H        3.46536401      10.58100877       5.26900439  F        0
H        6.59189912      19.77694965      11.03822749  F        0
H       16.04398914       8.93133647       8.84225548  F        0
H        4.35449610      18.04556897       7.68308177  F        0
H       15.03932990       8.88569483       5.99268334  F        0
H       16.97340651      10.80641058      12.75613404  F        0
H        7.69777211      18.11826613       7.44841170  F        0
H        6.55301950      11.30937632       3.13509397  F        0
H        1.92726146       8.79770260      10.59110356  F        0
H       14.56690736       6.77574372      12.16034191  F        0
H       10.76020324      17.16956735       9.31164421  F        0
H       13.35632228       7.06085325       2.51220488  F        0
H       11.61525895       4.01919395       4.45233654  F        0
H        3.68470478       7.32851759       5.08310689  F        0
H       15.75661379      12.42699387       9.00459924  F        0
H        4.37526294       4.01828352       7.26036481  F        0
H       14.91456245      13.24933472       6.30897701  F        0
H        7.92514400       4.01763560       6.85279547  F        0
H       12.17714149      15.71306863       6.40017283  F        0
H        1.73086688      16.98843832      10.35624453  F        0
H        6.78202892       6.52695113       2.93525138  F        0
H        1.73086689      12.60761804      10.35624453  F        0
H       14.11111957      15.72757569      10.59245558  F        0
H       13.51650676      10.58100877      14.61047976  F        0
H        4.05829635      10.79936776      17.66371281  F        0
H        6.01932001       6.80354450      15.45091456  F        0
H        3.12887899       8.92429365      13.74983426  F        0
H        8.12388129      10.93300164      17.21761941  F        0
H        5.82176689      17.87210706      15.75639142  F        0
H        2.98936131      16.34896307      13.39901228  F        0
H        2.98936131      13.24709329      13.39901228  F        0
Fe       9.02762865      10.82165871      10.11415762  T        1
