145
Lattice="20.102 0.0 0.0 0.0 19.731 0.0 0.0 0.0 13.253" Properties=species:S:1:pos:R:3:move_mask:L:1:tags:I:1 i=77 E=-3472.0240129048 regions="_JSON [\"Active\"]" n_terminators=32 energy=-993.0090448977658 pbc="F F F"
O       10.10195346       1.02042325       9.42221215  T        0
O       10.14930541       8.65584076       9.64015858  T        0
O        7.75048095       1.35298938      10.68684548  T        0
O        7.65091777       8.95140589      10.45490552  T        0
O        8.24875286       2.82805635       8.63360823  T        0
O        8.04759770       7.50448690       8.33029275  T        0
O        7.83902477       0.25016117       8.22637090  T        0
O        8.55119144      10.17271062       8.17941799  T        0
O        6.55492981       0.45462610      12.95803815  T        0
O        6.70379862       8.75673264      12.92547030  T        0
O        4.19016684       9.26156525       4.38149374  T        0
O        6.51191174      11.06875370      11.68805018  T        0
O        3.98694929       1.12004188       4.23955743  T        0
O        5.07597962       0.82517589      10.72614112  T        0
O        4.98332139       8.95689640      10.90941051  T        0
O        5.98878934       2.41986450       1.47181687  T        0
O        6.47855649       8.03714043       1.59850095  T        0
O        3.92305676       1.09081907       0.40855253  T        0
O       14.28939881       1.09056164       6.59760336  T        0
O        5.98907842      -0.24119335       1.37986665  T        0
O        4.22429627      10.45638809       8.92546746  T        0
O        1.91219290       2.61637033       1.27744075  T        0
O        1.91568402       7.38374612       0.88312872  T        0
O       12.26192520       7.28990949       5.85925226  T        0
O       12.32611188       2.43084844       5.31516892  T        0
O       11.81892212       0.86472408       7.42314096  T        0
O        2.56962082       1.56453948      10.05203886  T        0
O        2.51662567       8.49410693       9.88030555  T        0
O       12.60572857       1.58317155       9.92709596  T        0
O        9.25997102       9.27525703       4.00230098  T        0
O        8.58268197       1.09901394       3.96711443  T        0
O        4.61283590       2.43235584       8.65515476  T        0
O        4.63685072       7.84809570       8.48065568  T        0
O        0.19427233       7.30924785       3.04448657  T        0
O       -0.18044204       3.35662039       2.85522181  T        0
O       10.17032173       3.23874206       3.90981054  T        0
O       10.54286574       7.00983127       3.81458715  T        0
O        2.74298997       7.23533916       3.40204462  T        0
O        2.30473836       3.14533254       3.87609105  T        0
O       12.42504723       3.02733184       2.66478988  T        0
O       13.23436499       7.18909968       3.46186126  T        0
O        1.62041428       5.11902236       2.19778932  T        0
O       12.09951380       4.96065784       4.54765272  T        0
O        3.74748441       6.97135936       5.85516678  T        0
O        3.78406496       2.94994952       6.15673920  T        0
O        5.36945670       6.91478200       3.83962510  T        0
O        4.91900799       3.67882768       3.91290442  T        0
O        4.33892846       4.98000627       7.82379860  T        0
O        6.34239228       6.42963274       6.51059413  T        0
O        6.29280311       3.50631465       6.82503886  T        0
O        8.43136534       5.07813688       7.25777469  T        0
O        8.78700304       7.31810493       5.81810986  T        0
O        8.70497364       2.72209343       6.05261443  T        0
O        7.96060552       6.92945290       3.36699292  T        0
O        7.51308209       3.58628762       3.85592043  T        0
O        6.31120713       5.29879055       2.02068231  T        0
Si       8.51836520       1.32841762       9.23969147  T        0
Si       8.59771520       8.82814704       9.14075712  T        0
Si       6.55740015       0.43314919      11.31845083  T        0
Si       6.45378776       9.43895697      11.45388302  T        0
Si       5.55150495       1.13011926       0.62001064  T        0
Si       2.31139576       1.26374920       0.44827040  T        0
Si      12.72396701       1.04450703       6.08384804  T        0
Si      11.63585041       0.60511016       9.03563332  T        0
Si       4.04985841       1.14211018       9.48408168  T        0
Si       4.07571457       8.91476466       9.54630531  T        0
Si       1.58622335       6.74177723       2.37324254  T        0
Si       1.42293159       3.53534682       2.54025100  T        0
Si      11.77412164       3.41175675       4.13062196  T        0
Si      12.02006905       6.58306215       4.39026678  T        0
Si       3.95762123       7.61638688       4.40373831  T        0
Si       3.72754882       2.70338721       4.53765097  T        0
Al       4.67175083       6.61547326       7.29829587  T        0
Si       4.70183625       3.47670780       7.42019196  T        0
Si       7.91912751       6.61127360       6.99412196  T        0
Si       7.92293280       3.52799342       7.21813969  T        0
Si       9.11563750       7.65773982       4.25006221  T        0
Si       8.73672746       2.65738483       4.41584464  T        0
Si       6.52217423       6.77065431       2.63211747  T        0
Al       6.22522847       3.65423946       2.61711348  T        0
O        7.98059921       0.73889682      -2.89686156  T        0
O        6.27882007       1.14083596      -0.84226371  T        0
O        5.47490155       1.40855073      -3.40093683  T        0
O        1.70615874       1.44353426      -1.07632009  T        0
Si       6.43357317       0.56588960      -2.36197023  T        0
O       10.15020207      -1.06927791       4.12668114  T        0
O        2.34042621      -0.89534904       3.60699409  T        0
O       12.32047944      -1.50016790       2.68761158  T        0
O        2.25237104      -2.64085964       1.66919214  T        0
O       11.97596336      -2.88254247       4.90135010  T        0
O        1.61746943      -0.04173201       1.15532900  T        0
O       12.51263055      -0.21530056       5.06543069  T        0
O        3.72521987      -0.95708260       5.93706198  T        0
O        7.04837601      -1.06392419      10.82770707  T        0
O        5.00137654      -1.24905802       3.63580464  T        0
O        3.80239942      -2.73506627       7.93262453  T        0
O        6.01735945      -1.40019843       7.28520506  T        0
O        3.97974291      -0.13844104       8.47930381  T        0
O        8.49943260      -2.36550447       7.86558179  T        0
O        8.14387420      -0.76917737       5.82163467  T        0
O        7.63152153      -1.25777641       3.25264457  T        0
O       11.99468962      -0.95555092       9.42960610  T        0
O        6.16715038      -2.87192513       1.80129743  T        0
Si       1.51216410      -1.27252533       2.23152270  T        0
Si      11.74777176      -1.39821979       4.22682859  T        0
Si       3.75175060      -0.50692229       4.35650343  T        0
Si       4.39350018      -1.28967605       7.39514285  T        0
Si       7.61510870      -1.08354603       7.31746040  T        0
Si       8.63472500      -0.50681727       4.29320451  T        0
Si       6.18376345      -1.38814233       2.51046144  T        0
O        5.91841094      -1.00192217      -2.40521075  T        0
O       -0.08451851      -1.55571248       2.56372344  T        0
H       10.95532307       8.85008497       9.12727255  F        0
H        7.75914502      10.43742179       7.68600442  F        0
H        6.01931354       0.95312461      13.59787507  F        0
H        6.01931354       8.91222751      13.59787507  F        0
H        3.45925242       9.91158019       4.41179507  F        0
H        6.45001595      11.67065412      10.93294989  F        0
H        5.69664665       8.18021685       1.05659762  F        0
H       15.03932989       0.97965726       5.99268335  F        0
H        4.32395249      10.52815797       7.96405277  F        0
H        2.35337064       8.25291401       0.82192755  F        0
H       12.40451339       8.25291401       5.80455660  F        0
H        1.92726146       1.06764952      10.59110356  F        0
H        1.92726146       8.79770260      10.59110356  F        0
H       13.54926599       1.44402420      10.11787433  F        0
H        8.57917776       9.96978004       4.04186183  F        0
H       -0.70903753       7.30425969       2.68512250  F        0
H       -0.70903753       2.56109242       2.68512249  F        0
H       13.35632229       2.80449888       2.51220488  F        0
H       13.35632228       7.06085325       2.51220488  F        0
H        8.23844393       1.43588107      -3.52791591  F        0
H        4.52133035       1.34033226      -3.25073397  F        0
H        1.54448592       0.71940466      -1.70877227  F        0
H       13.03074803      -0.98698471       2.26762503  F        0
H        2.20758188      -3.14188650       0.83020009  F        0
H       12.25872462      -3.14188650       5.79628408  F        0
H        6.45001594      -1.80559776      10.93294989  F        0
H        4.03182274      -3.06210338       8.82439872  F        0
H        8.21123678      -3.04022255       8.50458507  F        0
H       11.43576677      -1.74328893       9.31342918  F        0
H        5.53537813      -3.08990416       1.09262638  F        0
H        6.45001594      -1.80559776      -2.32005011  F        0
H       -0.90389483      -1.01556292       2.50078841  F        0
Fe       5.94979587       5.00084645       5.09094551  T        1
