141
Lattice="19.123 0.0 0.0 0.0 14.277 0.0 0.0 0.0 7.5465" Properties=species:S:1:pos:R:3:move_mask:L:1:tags:I:1 i=128 E=-2603.9155142701 regions="_JSON [\"Active\"]" n_terminators=32 energy=-954.7203265063898 pbc="F F F"
O        6.01823771       1.09678043       1.40902620  T        0
O       15.57207082       8.42424334       5.78896711  T        0
O       12.99553897       1.09874072       1.48350544  T        0
O        3.50520499       8.45768745       5.86798340  T        0
O        5.75537840      13.15076826       1.34219269  T        0
O       15.56840446       5.74814724       5.77499759  T        0
O       13.35266514      13.16144495       1.31879341  T        0
O        3.52934396       5.76664289       5.81840127  T        0
O       13.31267663      13.17718103       6.20556941  T        0
O        3.30044900       5.73839947       1.76458133  T        0
O        6.10908967      13.15068761       6.04402926  T        0
O       15.66124327       5.74302400       1.75663350  T        0
O       12.90180384       1.11116403       5.93228166  T        0
O        3.31367597       8.42827811       1.74341877  T        0
O        6.23959092       1.11884004       5.91564966  T        0
O       15.66422352       8.41783604       1.72430934  T        0
O        7.28721118       3.24448805       2.48225032  T        0
O       17.22388909      10.49686742       6.26704842  T        0
O       11.93326536       3.39607156       2.47239740  T        0
O        1.96994020      10.67840571       6.15934008  T        0
O        7.26713484      11.11458550       2.41638918  T        0
O       17.12572088       3.55031095       6.14608698  T        0
O       12.05551107      11.02252242       2.41558918  T        0
O        2.01922461       3.51666536       6.10382994  T        0
O       11.98925132      10.94934419       5.33215087  T        0
O        2.04746241       3.33942648       1.47379211  T        0
O        7.21940074      10.86231740       5.06748636  T        0
O       17.16595567       3.50586425       1.44292195  T        0
O       11.84976250       3.47622076       5.13404527  T        0
O        2.12097730      10.81161343       1.35771846  T        0
O        7.32661500       3.46246451       5.13609074  T        0
O       17.26824301      10.54314662       1.32549322  T        0
O        6.71759965       3.19525728      -0.05493563  T        0
O       16.39027338       9.96147999       3.77538359  T        0
O       12.44020391       3.21806446      -0.04705947  T        0
O        2.99498742      10.10747526       3.80853425  T        0
O        6.41031970      11.19054593      -0.14313890  T        0
O       16.06651855       4.04435274       3.78281441  T        0
O       13.07955798      10.90800553      -0.10276744  T        0
O        3.10236351       4.03159973       3.79763487  T        0
O        4.72007393       3.45740684       1.77158567  T        0
O       14.64660514      10.93645697       5.51223655  T        0
O       14.50123982       3.32165116       1.74802026  T        0
O        4.63411990      10.90153616       5.76987216  T        0
O        4.72816466      10.69403159       1.89381017  T        0
O       14.46070927       3.30306321       5.78166526  T        0
O       14.66233816      10.89938812       1.97887466  T        0
O        4.70695458       3.34826986       5.80704032  T        0
O       11.50986688       8.47134595       3.68879677  T        0
O        7.65967795       8.64198309       3.49583158  T        0
O        1.81019300      13.12826467      -0.06808810  T        0
O       11.47571592       5.76707566       3.67542759  T        0
O        7.71081894       5.69058670       3.56018939  T        0
O        9.53732407      10.32801269       3.63758082  T        0
O       -0.03145706      11.18163440      -0.28514144  T        0
O        9.60090411       4.00656404       3.62178330  T        0
O       13.33474625       7.07197699       5.13117296  T        0
O        5.73936390       7.14433896       5.13612315  T        0
O        5.57667995       7.07796653       2.25155187  T        0
O       13.45802029       7.06695513       2.44760390  T        0
O       14.15082305       7.02458673      -0.07462581  T        0
O        4.50960776       7.01337356      -0.17954022  T        0
Si       6.13486552       2.74334998       1.41003623  T        0
Si      15.95071595       9.97302620       5.35811678  T        0
Si      13.01634649       2.74676404       1.41265249  T        0
Si       3.28894029      10.01866285       5.41996301  T        0
Si       6.03687485      11.52366314       1.40199976  T        0
Si      15.80213794       4.17354137       5.39349104  T        0
Si      13.24122573      11.50632497       1.42598920  T        0
Si       3.34727516       4.19418586       5.40652654  T        0
Si      13.25995419      11.51829251       6.16597254  T        0
Si       3.29063654       4.16267715       2.17999491  T        0
Si       6.11428303      11.49672613       6.11031026  T        0
Si      15.84391016       4.16927845       2.16498766  T        0
Si      12.96510930       2.75052724       6.11716495  T        0
Si       3.27481265       9.99841808       2.19606029  T        0
Si       6.19225388       2.75899305       6.11826468  T        0
Si      15.98054876       9.97135334       2.18403605  T        0
Al      11.36981515      10.32416076       3.84769888  T        0
Si       7.86837570      10.28155803       3.69798381  T        0
Si       1.57354100      11.48302322      -0.05363047  T        0
Si      11.27688380       4.10328171       3.76921322  T        0
Si       7.89155703       4.05826972       3.75074354  T        0
Si      14.67949801       7.09418465       6.09404552  T        0
Si       4.45044666       7.11775193       6.10076061  T        0
Si       4.20309870       7.07649620       1.42169921  T        0
Si      14.76447433       7.08627922       1.44908114  T        0
Si      12.48420498       7.14120347       3.74359847  T        0
Al       6.59687927       7.16907596       3.63754164  T        0
O        6.75912842       3.14229892       7.60831725  T        0
O       12.40923782       3.17746438       7.59754896  T        0
O        6.67249726      11.05562289       7.59135250  T        0
O       13.30572455      11.00226111       7.73231119  T        0
O       14.11568623       7.04343083       7.64054703  T        0
O        5.02351412       7.08338241       7.65233782  T        0
O        3.57403362       8.45759462      -2.21529625  T        0
O        3.36408815       5.83527955      -2.35053437  T        0
O        6.31459021      13.06332788      -2.15388640  T        0
O        2.38353525      10.73648085      -1.28544386  T        0
O        7.60179904      10.76296452      -2.40368625  T        0
O        2.76635869      10.40221590      -3.88008263  T        0
O        4.87373989      10.77641123      -2.27673958  T        0
O        5.87343347       6.97095881      -2.35655889  T        0
Si       3.39656691      10.07906737      -2.38968638  T        0
Si       6.25995919      11.45976897      -1.75650828  T        0
Si       4.32648858       7.06432491      -1.78673983  T        0
H        5.61083456       0.52083913       2.07985367  F        0
H       13.50938118       0.51971906       2.07492992  F        0
H        5.61112307      13.75835362       2.07975607  F        0
H       13.50958039      13.75682243       2.07498241  F        0
H       13.51084140      13.75504172       5.44776650  F        0
H        5.62495998      13.75277707       5.44935724  F        0
H       13.50975252       0.52161770       5.44778410  F        0
H        5.62509051       0.52255101       5.44942550  F        0
H       17.28974254      11.12548174       7.01862795  F        0
H        1.83343022      11.12554006       7.01950242  F        0
H       17.28979000       3.14560285       7.02339196  F        0
H        1.81954193       3.15353441       6.98813474  F        0
H        1.83183800       3.14857954       0.53722786  F        0
H       17.29134854       3.14797220       0.53999843  F        0
H       17.29120144      11.12876736       0.54010345  F        0
H        6.35952436       2.97904956      -0.93427223  F        0
H       12.76076393       2.97683097      -0.93375646  F        0
H       12.76174962      11.29928001      -0.93393629  F        0
H        2.56257806      13.76129914       0.00087584  F        0
H       -0.96427299      11.34215683       0.00103770  F        0
H       14.60982961       7.13673871      -0.92783774  F        0
H        6.35949513       2.97597070       8.47938261  F        0
H       12.76321398       2.97604733       8.47995589  F        0
H        6.35946036      11.30224636       8.48133548  F        0
H       12.76333233      11.30075111       8.47967776  F        0
H       14.61405599       7.13800201       8.47661577  F        0
H        4.50898861       7.14016697       8.47499567  F        0
H        3.36064390       4.89097090      -2.09366187  F        0
H        5.62495998      13.75277707      -2.09714276  F        0
H        7.72914317      10.28615024      -3.24155184  F        0
H        3.19736723      10.11759060      -4.70766930  F        0
H        6.23944212       7.13797332      -3.24031999  F        0
Fe       9.64259745       8.52743527       2.60059454  T        0
Fe       9.49741287       5.87955572       2.48925119  T        1
O        9.71012224       7.22234691       1.31437391  T        2
