135
Lattice="19.123 0.0 0.0 0.0 14.277 0.0 0.0 0.0 7.5465" Properties=species:S:1:pos:R:3:move_mask:L:1:tags:I:1 i=128 E=-2603.9155142701 regions="_JSON [\"Active\"]" n_terminators=32 energy=-907.0312700865672 pbc="F F F"
O        6.05128807       1.15274678       1.47817186  T        0
O       15.79123162       8.51275489       5.85811353  T        0
O       12.85566706       1.25017877       2.02953826  T        0
O        6.07237054      13.11918347       1.50244448  T        0
O       15.68973597       5.82726346       5.77485153  T        0
O       13.30746565      13.23017562       1.28401282  T        0
O       13.21958465      13.19168435       6.18717662  T        0
O       15.67489345       5.77658433       1.82033687  T        0
O       13.22553265       1.08953061       6.18668835  T        0
O       15.57548240       8.44906678       1.85386806  T        0
O        6.94353799       3.51695869       2.54270699  T        0
O       17.13399087      10.84587365       6.09349897  T        0
O       11.86201545       3.77584187       2.16240064  T        0
O        6.91442280      10.75176334       2.57621556  T        0
O       17.16770219       3.60087289       6.16601132  T        0
O       11.79456736      11.08875821       2.19296255  T        0
O       11.87999235      11.08903745       5.04912918  T        0
O        7.46304487      10.67083923       5.25343475  T        0
O       17.07385753       3.52135547       1.34828679  T        0
O       11.93043699       3.20242101       5.01822907  T        0
O        7.51245199       3.42618000       5.22476985  T        0
O       16.99661015      10.70608210       1.31953846  T        0
O        6.39725866       3.34990571      -0.02684184  T        0
O       16.04901617      10.20539794       3.78394115  T        0
O       12.72868383       2.87938258      -0.15695719  T        0
O        6.44700794      10.94890365      -0.01747456  T        0
O       16.10807273       4.06461434       3.80662592  T        0
O       12.74151005      11.28430678      -0.30605424  T        0
O        4.35045351       3.13920533       1.83379767  T        0
O       14.43223021      10.81731148       5.82685183  T        0
O       14.47977282       3.38551739       1.78909960  T        0
O        4.34323050      11.13329341       1.79787524  T        0
O       14.47399816       3.43948722       5.83251651  T        0
O       14.38322224      10.81356161       1.76806514  T        0
O       11.59782861       8.52879996       3.66300983  T        0
O       17.32733724       1.12475725       0.07649642  T        0
O        7.54880003       8.37900428       3.73850947  T        0
O       11.61522123       5.87141893       3.85263114  T        0
O       17.30339648      13.11379942       0.03300802  T        0
O        7.16037102       5.76645010       3.91629384  T        0
O        9.41358039      10.04738914       3.49980805  T        0
O        9.36957813       4.18881819       3.61329422  T        0
O       13.59077883       7.30632544       5.03519823  T        0
O        5.14993974       7.47706424       4.75738902  T        0
O        5.76413492       7.38878221       2.18856800  T        0
O       13.33744310       6.97298152       2.32203382  T        0
O       14.32626655       7.05557124      -0.09863674  T        0
Si       5.93559991       2.80024850       1.46320560  T        0
Si      15.83098816      10.10143693       5.40965112  T        0
Si      12.99881422       2.79317498       1.45577053  T        0
Si       5.92836319      11.47507429       1.46127074  T        0
Si      15.83545222       4.22415285       5.42251135  T        0
Si      13.02087296      11.59174569       1.27901673  T        0
Si      12.98384249      11.54775953       6.13023283  T        0
Si      15.84715498       4.18732142       2.20176109  T        0
Si      13.01017146       2.73280481       6.12446619  T        0
Si      15.76036986      10.06004972       2.17970417  T        0
Al      11.24241486      10.31647586       3.65027984  T        0
Si      17.58316252       2.76244212      -0.03391050  T        0
Si       7.78565123      10.05564351       3.76708337  T        0
Al      11.10733296       4.14039930       3.83526147  T        0
Si      17.55204953      11.47534974      -0.04166252  T        0
Si       7.76460944       4.20824223       3.79133032  T        0
Si      14.84795345       7.19501905       6.09165938  T        0
Si      14.77352315       7.08989666       1.47159961  T        0
Si      12.55206301       7.20540111       3.80651226  T        0
Si       6.38250531       7.17383469       3.69844331  T        0
O       19.16998276       3.05256247      -0.32719416  T        0
O       19.15393352      11.17301184      -0.26868550  T        0
O       12.43264492       3.20747468       7.59502634  T        0
O       12.40422733      11.08781099       7.60324577  T        0
O       14.18561746       7.16737970       7.59892778  T        0
O       15.62579220       8.44587591      -1.96516531  T        0
O       15.68083137       5.76498280      -2.00185374  T        0
O       12.92213039      13.04008235      -2.40618370  T        0
O       12.84185735       1.20026234      -2.28244126  T        0
O       16.77298121      10.79515256      -1.32503507  T        0
O       11.57094809       3.40432572      -5.31028333  T        0
O       16.78642798       3.41779770      -1.30871511  T        0
O       11.55899910      10.77738534      -5.40829301  T        0
O       11.67380539      10.74038108      -2.69977913  T        0
O       11.67519356       3.51510519      -2.55479371  T        0
O       16.43801485      10.16278761      -3.87992061  T        0
O       16.36825770       3.92083967      -3.86936650  T        0
O       14.30491350      10.72587193      -2.37630398  T        0
O       14.29934431       3.49082059      -2.20777616  T        0
O       11.76725081       8.44143738      -4.10224460  T        0
O       11.45925961       5.76992527      -3.92208961  T        0
O        9.48695207       9.74114444      -4.04236022  T        0
O        9.46276677       3.86155896      -4.05615476  T        0
O       13.41202584       7.04441698      -2.58578015  T        0
O       13.49628231       6.64690253      -5.27073129  T        0
Si      15.77990199      10.03393530      -2.37068615  T        0
Si      15.77968092       4.16277856      -2.35023556  T        0
Si      12.91936095      11.46447384      -1.91645175  T        0
Si      12.90236616       2.76978246      -1.78864043  T        0
Si      11.11648657       9.95423479      -4.03703161  T        0
Si      11.06522946       4.16739485      -3.94563712  T        0
Si      14.76869270       7.08500183      -1.68473417  T        0
Si      12.53052252       7.00681008      -3.97129604  T        0
H        5.61083456       0.52083913       2.07985367  F        0
H       13.50938118       0.51971906       2.07492992  F        0
H        5.61112307      13.75835362       2.07975607  F        0
H       13.50958039      13.75682243       2.07498241  F        0
H       13.51084140      13.75504172       5.44776650  F        0
H       13.50975252       0.52161770       5.44778410  F        0
H       17.28974254      11.12548174       7.01862795  F        0
H       17.28979000       3.14560285       7.02339196  F        0
H        6.67998430      11.11604137       5.63469228  F        0
H        6.67493943       3.16061899       5.63310767  F        0
H        6.35952436       2.97904956      -0.93427223  F        0
H        6.36236324      11.29726414      -0.93275871  F        0
H        3.92366420       3.98179322       2.07546525  F        0
H        3.92251131      10.29939702       2.08119700  F        0
H       16.56036088       0.51548555      -0.00076213  F        0
H       16.56020813      13.76127004      -0.00066979  F        0
H        4.87489857       7.13453431       5.62990583  F        0
H        4.87243006       7.14046961       1.90355401  F        0
H       20.08726577       2.93486642      -0.00052988  F        0
H       20.08739461      11.34211663       0.00099186  F        0
H       12.76321398       2.97604733       8.47995589  F        0
H       12.76333233      11.30075111       8.47967776  F        0
H       14.61405599       7.13800201       8.47661577  F        0
H       13.51084140      13.75504172      -2.09873350  F        0
H       13.50975252       0.52161770      -2.09871590  F        0
H       12.44565577       3.15588527      -5.64616185  F        0
H       12.44599272      11.12072140      -5.64644730  F        0
H       15.92569105      10.11584057      -4.70878458  F        0
H       15.92661844       4.15901570      -4.70770176  F        0
H        8.59739021      10.07362933      -3.78432063  F        0
H        8.59637561       4.20354031      -3.78445885  F        0
H       14.25080708       7.13791561      -5.64139813  F        0
Fe       9.66641118       8.07087094       2.70946435  T        0
Fe      11.49318643       5.75044715       1.61496758  T        1
O       10.13000636       6.93330444       1.33728501  T        2
