136
Lattice="20.102 0.0 0.0 0.0 19.731 0.0 0.0 0.0 13.253" Properties=species:S:1:pos:R:3:move_mask:L:1:tags:I:1 i=77 E=-3472.0240129048 regions="_JSON [\"Active\"]" n_terminators=32 energy=-913.7403584132749 pbc="F F F"
O       11.96095489      16.84787742       4.70122197  T        0
O       11.77912657      12.76568628       4.70239710  T        0
O        3.29593508      18.53777668       6.09715426  T        0
O        6.39469910      18.81185557      10.98213818  T        0
O        7.05031424      10.65473791      11.20940162  T        0
O       16.87268252      10.68688052       9.23144196  T        0
O       16.44661663      18.92088229       8.87225533  T        0
O        3.66595335      12.14775697       8.03727119  T        0
O        3.93004166      17.15041017       8.18115379  T        0
O       14.47067088      17.37066496      12.09839004  T        0
O       13.82965469      11.99828964      11.81569849  T        0
O        5.86119243      18.57963671       6.91576245  T        0
O       16.17663441      19.23965244      13.08793381  T        0
O       16.10275009      11.22614635      12.86934020  T        0
O        4.02807917      19.82573495       8.36553254  T        0
O       14.23811757      19.90488181      11.30922945  T        0
O       14.74347208       9.41415391      11.41060774  T        0
O        7.40771283      12.11518206       8.12086387  T        0
O        8.09416379      17.35687188       7.60903547  T        0
O        8.10893903      19.39997849       5.70869204  T        0
O       11.99957254      10.59344639       9.34297133  T        0
O       11.44070933      18.97637900       9.20660014  T        0
O       16.25407237      17.07946568       4.54947544  T        0
O       16.31442302      12.43571760       4.61687373  T        0
O       10.22066246      16.55262511       9.41863254  T        0
O        9.89113185      12.31293922       9.16490372  T        0
O        7.54954721      16.43691586      10.44489286  T        0
O        7.70810480      13.08494438      10.56590489  T        0
O       17.66635170      13.22998948       9.46978467  T        0
O       18.07912052      16.94912322       9.59082492  T        0
O        8.50465051      14.57317768       8.59871498  T        0
O        6.30468778      16.82080357      12.76371982  T        0
O        6.15725431      12.75514648      12.66762681  T        0
O       16.41025287      12.54660051       7.29045968  T        0
O       16.69580201      16.89426695       7.20715277  T        0
O        4.87904133      16.63385949      10.57642994  T        0
O        5.18127088      12.39686543      10.20453729  T        0
O       15.02314871      12.67433520       9.54198148  T        0
O       15.46077201      16.48895109       9.51356110  T        0
O       15.94222090      14.75502767       5.81767118  T        0
O       14.09330465      12.80640296       6.08219592  T        0
O       14.19746053      16.73634252       6.23443471  T        0
O       12.32233419      14.79964954       6.28765505  T        0
O       11.79639120      12.39817708       7.33302433  T        0
O       11.87425548      17.17564794       7.36788639  T        0
O        2.25852290      16.19897746      10.14604086  T        0
O        2.67036875      12.74399122      10.53912334  T        0
O       12.36630007      13.10928258       9.84590551  T        0
O       12.65247822      16.65434309       9.92666199  T        0
O        4.02331865      14.59431755       9.10819615  T        0
O       13.88669139      14.63906313      11.13567566  T        0
Si       4.30558699      18.54462348       7.39266028  T        0
Si      14.63588306      18.91436393      12.55177673  T        0
Si      14.59741426      10.68297152      12.45520593  T        0
Si       7.48509138      18.76267054       7.09166519  T        0
Al       8.54865586      16.30479663       8.88942067  T        0
Si       8.42800774      13.03620453       9.02560579  T        0
Si       6.27144925      17.21757100      11.17123090  T        0
Si       6.44267395      12.17138594      11.17986681  T        0
Si      16.48227330      12.25147307       8.89020538  T        0
Si      16.65848125      17.29645610       8.80771837  T        0
Si      15.68944939      13.15358629       5.95517425  T        0
Si      15.77802252      16.37579480       5.96257313  T        0
Si      12.51934369      13.20222371       6.10063002  T        0
Si      12.60852418      16.39697596       6.14296454  T        0
Si      11.48497884      12.08714535       8.89250411  T        0
Si      11.54924441      17.38980233       8.94928127  T        0
Si       3.76530710      16.17340133       9.47376872  T        0
Si       3.86775589      12.99157573       9.43653196  T        0
Si      13.87735101      13.09806707      10.61353134  T        0
Al      14.24810826      16.35394784      10.71300384  T        0
O        9.95793398      21.16701869       9.21397838  T        0
O        7.62849872      21.12068476      10.50161741  T        0
O       17.98589477      21.13813255       9.22659557  T        0
O        7.81481951      22.63903168       8.39745993  T        0
O        7.77936294      19.93669870       8.18055680  T        0
O        6.54626869      20.84471675      12.79953726  T        0
O       16.67674126      20.90469053       7.01403076  T        0
O        4.92249542      20.96657713      10.59442028  T        0
O       15.26966401      21.25374378       9.29437926  T        0
O       11.48863453      20.81817232       7.17621333  T        0
O        2.34011108      21.30153009       9.87471414  T        0
O       12.63951683      21.27251776       9.62758365  T        0
O        4.09907889      22.56667382       8.55704417  T        0
O       14.11298724      22.64224714      11.31491076  T        0
Si       8.33024951      21.20946974       9.02903102  T        0
Si       6.34002118      20.44096533      11.22455777  T        0
Si      16.57779720      20.52953712       8.61977337  T        0
Si      11.42010665      20.56699704       8.80633802  T        0
Si       3.88427365      21.14050801       9.32912609  T        0
Si      14.08115992      21.25855226      10.42292811  T        0
O       13.59121599      19.40817692      13.72916519  T        0
O       13.74070721      10.14720591      13.76231371  T        0
O        5.92065880      12.58872298      15.33107389  T        0
O        5.80616389      16.96804973      15.40566964  T        0
O        5.30556590      14.78721075      14.09248846  T        0
O        3.72995236      16.93367185      13.64916978  T        0
O        3.66997527      12.68504711      13.81642397  T        0
Si       5.25839127      16.39800411      13.97477523  T        0
Si       5.23210974      13.17600802      13.97284514  T        0
H       11.77741499      17.76721957       4.45015374  F        0
H       11.77741500      11.82883679       4.45015372  F        0
H        3.46536401      19.01504758       5.26900440  F        0
H        6.59189033       9.81912404      11.03827922  F        0
H       16.64303307       9.81912404       8.84117322  F        0
H        4.35449611      11.55048736       7.68308178  F        0
H       16.97340650      18.78964577      12.75613404  F        0
H       16.97340651      10.80641058      12.75613404  F        0
H       14.16364097       9.08086469      10.69751272  F        0
H        7.69777211      11.47779022       7.44841170  F        0
H        8.50665683      19.01129957       4.91774358  F        0
H       11.52310774       9.76092419       9.21110646  F        0
H       15.87290964      17.87210703       4.12309272  F        0
H       15.87290964      11.72394929       4.12309273  F        0
H       18.05303808      13.25020103      10.35989921  F        0
H       18.05303809      16.34585533      10.35989921  F        0
H        1.73086688      16.98843832      10.35624453  F        0
H        1.73086689      12.60761804      10.35624453  F        0
H       18.28958667      21.16688107      10.15436837  F        0
H        7.84356087      22.87259074       7.45668424  F        0
H        6.01931354      20.68412461      13.59787507  F        0
H       16.07044730      20.68412712       6.28158542  F        0
H       12.20788616      20.61981982       6.55602502  F        0
H        1.92726146      20.79864952      10.59110356  F        0
H        4.51576461      22.82060840       7.71911054  F        0
H       14.56690736      22.82060840      12.16034191  F        0
H       13.51650675      19.01504758      14.61047976  F        0
H       13.51650676      10.58100877      14.61047976  F        0
H        5.82176689      11.72394931      15.75639142  F        0
H        5.82176689      17.87210706      15.75639142  F        0
H        2.98936131      16.34896307      13.39901228  F        0
H        2.98936131      13.24709329      13.39901228  F        0
Fe       8.45846219      14.90011246      11.47843055  T        0
Fe      11.56313068      15.10618176      10.72791505  T        1
O       10.15794320      15.38654091      12.38671779  T        2
O       10.26610826      14.00608169      11.80440300  T        3
