145
Lattice="24.397 0.0 0.0 0.0 24.397 0.0 0.0 0.0 24.397" Properties=species:S:1:pos:R:3:move_mask:L:1:tags:I:1 i=41 E=-6943.8331748197 regions="_JSON [\"Active\"]" n_terminators=24 energy=-1032.0650104304195 pbc="F F F"
O        9.67638167      14.64522555      -0.17839597  T        0
O       12.26714356       9.48615914       2.57747035  T        0
O       14.85276929      20.88788085       6.20934180  T        0
O       12.24263588      15.71078637       8.77485147  T        0
O        9.67787024      18.40809940       3.64501347  T        0
O       20.93707755      15.69415581       0.00997014  T        0
O       18.39157818      20.81511399       2.58221179  T        0
O       14.80177007       9.55882828       0.00995740  T        0
O        9.68080908      12.10433990       2.58220786  T        0
O        9.60802813      15.64312735       6.20936240  T        0
O       14.78513140      18.25328288       8.77485363  T        0
O       12.08783140      20.81801218       3.64500714  T        0
O       15.85068278      20.81954019      -0.17837100  T        0
O       21.00975984      18.22877113       2.57746815  T        0
O       11.48797989      14.00144906       1.96568924  T        0
O       14.16729529      11.28563168       1.97564106  T        0
O       13.07961421      20.23914840       8.12717247  T        0
O       10.25675917      17.41629564       8.12718410  T        0
O       10.13227557      20.36364247       5.42793802  T        0
O       19.21027490      16.32861737       1.97565245  T        0
O       16.49447686      19.00793196       1.96569466  T        0
O       10.28753985      10.13780428       0.86088903  T        0
O       11.29300426      16.37804549       4.32615366  T        0
O       14.11787761      19.20287227       4.32613835  T        0
O       14.17087278      16.32504571       7.00152700  T        0
O       20.35812801      20.20839394       0.86090433  T        0
O       12.16934157      11.97518103       3.56730661  T        0
O       12.29494232      21.75522397       6.13048298  T        0
O       12.25450344      18.24141224       9.64382639  T        0
O        8.74069461      18.20096708       6.13049370  T        0
O       18.52074510      18.32658285       3.56731324  T        0
O       12.29208981       8.62234579       0.05064015  T        0
O        8.75821074      12.12035759       0.05212555  T        0
O       12.15853470      14.79445744       6.26604298  T        0
O       12.21756240      18.27831066       2.75659848  T        0
O       15.70146390      18.33738213       6.26604618  T        0
O       18.37556080      21.73769086       0.05212462  T        0
O       21.87356755      18.20383607       0.05063973  T        0
O       10.59101489      16.72615341       1.70638917  T        0
O       14.00743899      10.20567977       4.44074029  T        0
O       14.11338721      22.74565427       7.86204976  T        0
O       10.50643774      16.43772478      10.63196856  T        0
O        7.67142424      19.94458241       4.37862459  T        0
O       10.55135346      22.82446151       4.37855045  T        0
O       20.19846320      13.81798861       1.73273990  T        0
O       16.67008760      20.01279568       4.44094783  T        0
O       16.67793098      10.29746701       1.73274441  T        0
O       10.48312104      13.82582361       4.44094985  T        0
O        7.75025650      16.38251485       7.86205250  T        0
O       14.05818740      19.98949210      10.63195877  T        0
O       13.76973131      19.90478185       1.70636201  T        0
O       20.29023859      16.48847983       4.44074465  T        0
O       20.09191155      22.68881251       1.91958729  T        0
O        7.80712579      10.40399153       1.91958928  T        0
O       16.66019171      16.53596855       8.03608322  T        0
O       13.95994391      13.83572515       8.03608158  T        0
O       22.87174594      19.96087489       1.82612181  T        0
O       10.53503765       7.62418563       1.82611699  T        0
Al      10.92483565      15.20582774       0.85892011  T        0
Si      13.14815191      10.74687203       3.14293405  T        0
Si      13.57559664      21.40269530       7.09027712  T        0
Si      11.31064631      16.95462036       9.29552229  T        0
Si       9.05262394      19.24058196       4.91862132  T        0
Si      19.69187781      15.16529270       0.93518814  T        0
Si      17.50986502      19.53098073       3.10374378  T        0
Si      15.33062392      10.80403141       0.93518122  T        0
Si      10.96493920      12.98605836       3.10373895  T        0
Si       9.09321670      16.92030919       7.09028495  T        0
Si      13.54129259      19.18527090       9.29551928  T        0
Si      11.25534174      21.44327757       4.91860281  T        0
Al      15.29010275      19.57105698       0.85891682  T        0
Si      19.74904744      17.34776479       3.14293681  T        0
Si       9.12927550      11.19591904       1.34124789  T        0
Si      10.88033650      15.13131801       5.31674039  T        0
Si      13.10325981      19.65148369       3.15027255  T        0
Si      15.33278954      17.35723468       7.51697718  T        0
Si      21.52193135      19.16251872       1.32966823  T        0
Si      11.33340342       8.97399383       1.32966271  T        0
Si      15.36459303      19.61556905       5.31673358  T        0
Si      10.84437026      17.39263796       3.15027325  T        0
Si      13.13868178      15.16312889       7.51697421  T        0
Si      19.30000089      21.36664977       1.34125285  T        0
O       14.79749479      12.11963100      -2.56997940  T        0
O       15.81711385      18.43043601      -2.49580958  T        0
O       12.06546211      14.67879771      -2.49577840  T        0
O       18.37629766      15.69840885      -2.56997310  T        0
O       14.07413329      14.02458812      -0.85566004  T        0
O       16.47133444      16.42177703      -0.85567597  T        0
O       13.05066183      10.17809351      -1.94880557  T        0
O       10.07456022      12.87015657      -2.12994784  T        0
O       17.62572663      20.42135830      -2.12994912  T        0
O       20.31784000      17.44524697      -1.94881496  T        0
O       12.34696376      15.90305312      -0.09653932  T        0
O       15.67928142      12.07858653      -0.02833630  T        0
O       18.41732252      14.81662876      -0.02832705  T        0
O       14.59289661      18.14894819      -0.09656506  T        0
O       12.27133307      12.20135812      -3.46403518  T        0
O       18.29456471      18.22457876      -3.46402019  T        0
O       16.59615621      13.89975494      -1.73043417  T        0
O       14.07992897      10.45733360      -4.45188542  T        0
O       22.79469046      16.39316183      -1.72850540  T        0
O       16.52995668      19.95181879      -4.53927886  T        0
O        7.59360144      13.83407771      -1.60953348  T        0
O       14.05732691      16.43857978      -2.03415170  T        0
O       10.54407777      13.96597898      -4.53925698  T        0
O       16.66182346      22.90231950      -1.60949849  T        0
O       20.03856941      16.41597554      -4.45189176  T        0
O       14.10273190       7.70123239      -1.72854229  T        0
Si      15.29325131      13.01598822      -1.29812633  T        0
Si      15.26057905      17.36403210      -1.40409239  T        0
Si      13.13186807      15.23534357      -1.40406620  T        0
Si      17.47993122      15.20265320      -1.29812702  T        0
Si      13.55352878       9.01556388      -0.90487568  T        0
Si      11.22564222      13.41475558      -3.14561336  T        0
Si      17.10999043      21.45922042      -0.95105164  T        0
Si      19.26861681      16.96330376      -3.10832543  T        0
Si       9.03669336      13.38591542      -0.95106453  T        0
Si      13.53260318      11.22730478      -3.10832787  T        0
Si      21.48035368      16.94238711      -0.90486453  T        0
Si      17.08115953      19.27026686      -3.14562222  T        0
H       14.73192765      10.71000053       4.85487458  F        0
H       13.68673605      23.15239550       8.63276462  F        0
H        9.66477675      16.80915558      10.95402362  F        0
H        7.34351903      20.83116256       4.61081863  F        0
H        9.66481601      23.15243056       4.61081458  F        0
H       19.78590388      13.44267559       2.53358811  F        0
H       17.05321204      10.71001402       2.53361564  F        0
H        7.34350493      16.80917637       8.63275504  F        0
H       13.68672539      20.83112809      10.95404502  F        0
H       19.78593016      15.76396550       4.85484922  F        0
H       20.83112530      23.15241223       1.48839475  F        0
H        7.34352333       9.66479174       1.48837704  F        0
H       17.05322892      15.76398032       7.58755865  F        0
H       14.73195660      13.44271185       7.58757947  F        0
H       23.15241204      20.83112542       1.48839475  F        0
H        9.66479163       7.34352337       1.48837704  F        0
H       13.68673308       9.66480596      -4.85513656  F        0
H       23.15240156      16.80916493      -2.53384338  F        0
H       16.80913871      20.83112323      -4.85512183  F        0
H        7.34352146      13.68671965      -2.53387758  F        0
H        9.66480591      13.68673318      -4.85513656  F        0
H       16.80916481      23.15240172      -2.53384338  F        0
H       20.83112308      16.80913882      -4.85512183  F        0
H       13.68671953       7.34352150      -2.53387758  F        0
Fe      12.83370475      17.66227075       0.85686419  T        1
