141
Lattice="24.397 0.0 0.0 0.0 24.397 0.0 0.0 0.0 24.397" Properties=species:S:1:pos:R:3:move_mask:L:1:tags:I:1 i=41 E=-6943.8331748197 regions="_JSON [\"Active\"]" n_terminators=30 energy=-965.9611475405989 pbc="F F F"
O       21.71080683       2.49982323       0.12176031  T        0
O       21.80281493       5.94761116       3.59984299  T        0
O       15.67141295       9.82149613       6.22990685  T        0
O       20.81577176      12.35875750       3.65914624  T        0
O       20.98172314       3.64555763      12.55744156  T        0
O       15.54221705       6.25048574       9.69014534  T        0
O       21.91263723      -0.10122184       2.51655774  T        0
O       18.24829384       9.81742712       3.57001047  T        0
O       21.72911777       3.49666299       6.01097737  T        0
O       18.30155945       3.32281602       9.58199954  T        0
O       23.83190315       1.63344063       1.85594134  T        0
O       22.61728332       5.18511881       7.93812999  T        0
O       22.76804527       8.00751378       5.41274587  T        0
O       17.67770021      10.50893406       7.91267890  T        0
O       20.12522601      10.47836337       5.37923281  T        0
O       23.68131798       4.20624667       4.31221312  T        0
O       18.85831797      14.16618265       4.25441950  T        0
O       16.25294546      11.49334589       4.16271955  T        0
O       17.60806601       7.83909707      10.56696965  T        0
O       20.01875097       5.17569849      10.55759541  T        0
O       20.78923825       5.86171596       6.01596194  T        0
O       18.14423576       8.80337091       6.03095270  T        0
O       22.00727157      12.30545093       6.10960078  T        0
O       20.90634812      -0.03771315       0.01995510  T        0
O       24.25561468       2.58882883       6.33566173  T        0
O       24.34680065       6.21861719       2.69219867  T        0
O       18.29313871      12.28863002       2.60147638  T        0
O       14.59424194      12.30053043       6.13713610  T        0
O       18.11187261       5.94001292       8.87119990  T        0
O       21.91680939       6.17926120      12.20949384  T        0
O       22.68982377       4.25242557       1.82439184  T        0
O       13.79195255      10.42244412       4.43273613  T        0
O       22.57927223       4.37509305      10.48672335  T        0
O       20.01452153       8.01234260       4.34684878  T        0
O       16.57425391       8.02485530       8.04726430  T        0
O       22.64730241      10.49371699       4.39438565  T        0
O       20.20290033      14.07535961       1.83060455  T        0
O       16.58823132      10.42310106       1.66773141  T        0
O       22.69438496       1.71349736       4.30806380  T        0
O       20.08032458       4.30185343       8.01406200  T        0
Al      23.37489061       2.93817199       0.80700796  T        0
Si      23.55243345       4.78838275       9.24198261  T        0
Al      21.39177821       7.14367377       4.88203686  T        0
Si      16.98642801       9.27783929       7.05736773  T        0
Si      21.37795948      11.41190899       4.88059897  T        0
Si      23.21315417       0.75443414       3.06103260  T        0
Si      19.14543768       9.27486810       4.82130825  T        0
Si      21.32998601       4.73769604       7.07538696  T        0
Si      23.62784721       9.25796651       4.85568612  T        0
Si      23.13194264       2.97372976       5.23831327  T        0
Si      17.32434270      11.02790605       3.00577584  T        0
Si      19.11601974       4.71950234       9.27299479  T        0
Si      15.10479005      11.01355822       5.23768162  T        0
Si      19.54793215      13.22612555       3.08041276  T        0
Si      23.16353618       5.18872993       3.09479508  T        0
Si      21.34242363       4.83314078      11.46883910  T        0
Si      16.94981717       7.02257463       9.29074234  T        0
O       27.08353457       8.64060953       6.16710918  T        0
O       24.47983430       3.50556071       8.82003596  T        0
O       26.97162940       6.10359237       8.66193715  T        0
O       24.49940578       8.76925984       3.53626025  T        0
O       25.24460132       8.06874121       8.03124765  T        0
O       26.42701488       6.98165191       4.13198477  T        0
O       26.33704667       4.11489064       6.96378384  T        0
O       24.65852162       9.75102554       6.03071894  T        0
O       24.47202856       6.07673253       9.60001061  T        0
O       27.89169909       6.09091427       6.14117752  T        0
O       26.40510700      10.49968444       7.94223644  T        0
O       28.94619781       7.89935356       4.43773349  T        0
O       26.28023314       7.84291756      10.53631386  T        0
O       26.10377362       7.94617095       1.61488972  T        0
O       28.82994813       4.34917381       7.98850831  T        0
O       26.13276171       1.61585391       8.00702532  T        0
Si      25.83283824       9.24588524       7.04336574  T        0
Si      25.73993522       7.04283882       9.20759307  T        0
Si      25.35393089       7.48462912       3.00478341  T        0
Si      27.51404863       5.16548447       7.43257743  T        0
Si      27.58306277       7.40554102       5.21524368  T        0
Si      25.32582199       2.95935206       7.52385876  T        0
O       24.69408037       2.38979983      -2.76879172  T        0
O       26.28554224       1.82071791      -0.64498246  T        0
O       24.34656363      -0.16904964      -3.58216762  T        0
O       26.48799927       4.18944359      -2.05076518  T        0
Si      25.48124632       3.02026189      -1.45872960  T        0
O       18.14014275       2.38499598      -3.60275404  T        0
O       20.82183025       2.41813149      -6.24213341  T        0
O       20.09789039       0.71308523      -4.33491076  T        0
O       22.66889478       0.94001908      -1.77819498  T        0
O       18.87082961       1.85690454      -8.06252070  T        0
O       16.31079456       1.86658258      -5.54306421  T        0
O       24.44206311       3.57992747      -0.36225506  T        0
O       18.29227406      -0.09300936      -2.47874397  T        0
O       21.96416258      -0.05339925      -6.15127643  T        0
O       18.32925940       3.45377118      -6.07427206  T        0
O       20.06794274       1.68320243      -1.84275140  T        0
O       22.60386796       1.67782791      -4.33312433  T        0
O       20.15268457       4.30675892      -7.91112033  T        0
O       16.49138722       4.30616807      -4.25456499  T        0
Si      19.12892647       1.18003682      -3.09731957  T        0
Si      21.35534816       1.19794154      -5.28185098  T        0
Si      23.60038328       1.21754053      -3.11419956  T        0
Si      19.54331045       3.01445228      -7.09091848  T        0
Si      21.32998550       1.24192264      -0.90321523  T        0
Si      17.30016908       3.01180823      -4.87559832  T        0
O       22.56702348      -1.93126928       0.58478835  T        0
O       24.30807760      -0.24748528       3.77582803  T        0
O       20.11672215      -1.85782534       1.89271944  T        0
Si      21.37464192      -1.00830799       1.26028478  T        0
H       20.10951519       3.23923103      12.72546793  F        0
H       15.43757911       5.57209275      10.38640946  F        0
H       17.77043311       3.23924387      10.38640412  F        0
H       17.22544067      10.92750153       8.65411313  F        0
H       19.36965547      14.75328399       4.82834093  F        0
H       17.22544070       8.65411150      10.92750362  F        0
H       21.54216027      12.99764967       6.60187561  F        0
H       15.05290853      12.70105704       6.89848521  F        0
H       21.54216028       6.60187434      12.99765198  F        0
H       13.44269068      10.71000821       3.56560630  F        0
H       19.78591980      14.73191782       1.24430354  F        0
H       15.76397041      10.70999753       1.24433830  F        0
H       25.88537327      10.95404844       8.63278900  F        0
H       29.25185888       7.58759487       3.56561113  F        0
H       25.88537328       8.63278754      10.95405052  F        0
H       26.93058105       7.58756876       1.24433203  F        0
H       29.25185918       3.56561063       7.58759619  F        0
H       26.93058086       1.24433163       7.58757011  F        0
H       26.95192867       1.27083937      -1.07240246  F        0
H       25.19622735      -0.50276655      -3.24494277  F        0
H       26.93057835       4.85486043      -1.48866112  F        0
H       19.36968740       1.27081557      -8.65438303  F        0
H       15.74261410       1.27081536      -5.02730892  F        0
H       17.49833355      -0.50278089      -2.85477948  F        0
H       21.54221652      -0.50278066      -6.89866328  F        0
H       19.78593015       4.85484827      -8.63303166  F        0
H       15.76396555       4.85484859      -4.61106623  F        0
H       23.12589418      -2.55519498       1.07214050  F        0
H       24.89950013      -0.79949361       3.24468082  F        0
H       19.54187317      -2.53384464       1.48839915  F        0
Fe      20.74111173       3.37681409       1.62870694  T        0
Fe      20.35882718       4.57326784       4.41390524  T        1
O       19.62551055       3.65204539       3.02658898  T        2
