145
Lattice="20.102 0.0 0.0 0.0 19.731 0.0 0.0 0.0 13.253" Properties=species:S:1:pos:R:3:move_mask:L:1:tags:I:1 i=77 E=-3472.0240129048 regions="_JSON [\"Active\"]" n_terminators=34 energy=-982.7654786031646 pbc="F F F"
O       10.21528888       8.16652222       8.96671263  T        0
O        9.99829024      10.92947189       3.99344024  T        0
O        8.07975058       8.81149032      10.35555117  T        0
O       12.12783436      11.15543350       2.46421462  T        0
O        7.83480832       7.35097242       8.04259842  T        0
O       12.21489192      16.91164400       4.58847247  T        0
O       11.97512591      12.50283082       4.81129360  T        0
O        8.43017511      10.03945380       8.14806724  T        0
O       12.39722049       9.87694583       4.74865241  T        0
O        4.08660281      11.14303383       5.75777136  T        0
O        6.49340405       8.93367563      12.81511408  T        0
O        6.54438688      19.04290864      11.67268185  T        0
O        7.05483328      11.09921143      10.87503514  T        0
O        5.12411368       9.00295555      10.18619052  T        0
O       15.62995031       8.39590572       9.55359492  T        0
O        3.90109390      12.58408619       7.99595823  T        0
O        3.70642981      17.42473118       8.07451101  T        0
O       13.78425593      17.34038217      11.95527682  T        0
O       14.67819612      12.47607260      11.82118534  T        0
O        5.99211516      10.93911736       7.53811580  T        0
O       14.24058185       8.91718282       6.53243456  T        0
O       16.14396496      10.71653896      13.25727354  T        0
O        3.61697481       9.94310559       8.18240911  T        0
O       14.36021416       9.86950374      11.42004006  T        0
O        7.94063421      12.68045613       7.85567862  T        0
O        7.50322107      17.55828629       8.21329077  T        0
O       12.32079409       7.34949276       5.40136969  T        0
O        7.97102660      11.04457696       5.72786261  T        0
O       11.82302799       9.26247111       7.26016780  T        0
O        7.50967120      11.11905951       3.08735999  T        0
O        2.45565617       8.29350040       9.94885671  T        0
O       12.86855187       8.60561337       9.62916803  T        0
O        8.38206580       8.85238450       4.27155689  T        0
O       11.01568692      10.58759958       9.47658120  T        0
O       11.92714503      19.15934845       8.64750361  T        0
O        4.21009706       7.36101777       8.29228751  T        0
O       14.12578012       7.13632782      11.36584796  T        0
O       10.03421521      17.36196397       9.28689749  T        0
O        9.77567887      12.82614859       9.69296875  T        0
O       10.25633086       6.97981833       3.72028878  T        0
O        7.81290054      16.83504616      10.67322766  T        0
O        7.33404290      13.62462116      10.33110292  T        0
O       12.76126327       6.38000401       2.88391246  T        0
O        8.67748413      15.16423420       8.70782911  T        0
O       11.61767297       4.91384791       4.83643669  T        0
O        6.12122807      16.71180926      12.74476572  T        0
O        3.39270627       6.71741856       5.78014256  T        0
O        6.26042344      12.85287653      12.68933681  T        0
O        5.22845565      17.12788680      10.26003767  T        0
O        4.85227326      12.69951262      10.43864228  T        0
O       15.38382794      13.26265423       9.32578083  T        0
O       15.35013570      17.26112999       9.88207088  T        0
O        4.02802740       4.85286511       7.61605801  T        0
O        5.92771090       6.43702589       6.45553060  T        0
O       14.16880887      12.62480758       6.33222256  T        0
O       14.14252143      16.87348092       6.56309402  T        0
O        7.80394625       4.76823583       7.46019398  T        0
O       12.58826126      14.76247047       6.02121245  T        0
O        8.40636581       6.54889866       5.55263134  T        0
O       11.68897490      12.64949984       7.43304098  T        0
O       11.60732151      16.99918932       7.19410774  T        0
O        2.66755731      16.82376553      10.54465421  T        0
O        7.75688263       6.59077359       2.92472624  T        0
O        2.25328806      13.37195979      10.06058371  T        0
O       12.75109378      12.85301295      10.06694621  T        0
O       12.64450434      16.72637360       9.62580958  T        0
O        4.07744863      14.98112505       9.17276452  T        0
O       14.19868326      14.96123804      10.83733841  T        0
Si       8.61720718       8.49831145       8.84926722  T        0
Si      11.61677798      11.12535951       4.02851539  T        0
Al       6.53094977       9.34685468      11.13086497  T        0
Si       4.37099458      11.13766696       7.38045785  T        0
Si      14.67684072      11.01462176      12.55375278  T        0
Si       7.56891392      11.18881598       7.28055731  T        0
Si      12.70213952       8.83728156       5.96001291  T        0
Si       8.46044315      10.48377366       4.26490937  T        0
Si      11.54233154       9.14215267       8.85823484  T        0
Si       3.88220374       8.67049186       9.21648526  T        0
Si      14.27497085       8.52774309      10.49463223  T        0
Si       8.53126582      16.73331208       9.20849681  T        0
Si       8.43985505      13.61302935       9.12505308  T        0
Si      11.73911482       6.41684212       4.18164301  T        0
Si       6.42196899      17.43751305      11.32109500  T        0
Si       6.33746322      12.57628228      11.09300133  T        0
Si       4.39187683       6.34814683       7.04515384  T        0
Si       7.49655419       6.26631045       6.86213455  T        0
Si      12.59405438      13.13753187       6.19123688  T        0
Si      12.63216631      16.37687725       6.08736772  T        0
Si       8.69208050       7.25861202       4.10694572  T        0
Al      11.43481042      12.32627030       9.10945591  T        0
Si      11.56635896      17.55624390       8.73092352  T        0
Si       3.91238998      16.59026230       9.48508055  T        0
Si       3.76981027      13.39624318       9.41716040  T        0
Si      14.21383947      13.35937949      10.50460390  T        0
Si      14.01008249      16.55054192      10.52751710  T        0
O       13.52883454      11.00189658      13.73055763  T        0
O        5.01142236      10.99140625      17.55363248  T        0
O        5.57059374       7.09313384      14.63260440  T        0
O        4.01112545       8.91988403      13.35522752  T        0
O        5.77013180       9.63187190      15.34711861  T        0
O        7.49741524      11.34701804      16.60596888  T        0
O        5.58890754      12.29356796      15.22825887  T        0
O        5.85458192      16.95769645      15.43013826  T        0
O        5.21397134      14.72520391      14.25164045  T        0
O        3.64762549      16.86045321      13.90257806  T        0
O        3.71805759      12.61701497      13.41641435  T        0
Si       5.48628010       8.64764845      14.05325567  T        0
Si       5.94491494      11.02359177      16.18564784  T        0
Si       5.20635848      16.34333437      14.05570490  T        0
Si       5.20115258      13.14091251      13.91030413  T        0
H       13.03074804      10.85204106       2.26762503  F        0
H       11.77741499      17.76721957       4.45015374  F        0
H        3.46536401      10.58100877       5.26900439  F        0
H        6.59189912      19.77694965      11.03822749  F        0
H       16.04398914       8.93133647       8.84225548  F        0
H        4.35449610      18.04556897       7.68308177  F        0
H       14.40563884      18.04556895      12.19637069  F        0
H       15.03932990       8.88569483       5.99268334  F        0
H       16.97340651      10.80641058      12.75613404  F        0
H        7.69777211      18.11826613       7.44841170  F        0
H        6.55301950      11.30937632       3.13509397  F        0
H        1.92726146       8.79770260      10.59110356  F        0
H       11.52310955      19.83515307       9.21116341  F        0
H       14.56690736       6.77574372      12.16034191  F        0
H       13.35632228       7.06085325       2.51220488  F        0
H       11.61525895       4.01919395       4.45233654  F        0
H        3.68470478       7.32851759       5.08310689  F        0
H       15.75661379      12.42699387       9.00459924  F        0
H       15.75661380      17.16906248       9.00459925  F        0
H        4.37526294       4.01828352       7.26036481  F        0
H       14.91456245      13.24933472       6.30897701  F        0
H       14.91456244      16.34672163       6.30897701  F        0
H        7.92514400       4.01763560       6.85279547  F        0
H        1.73086688      16.98843832      10.35624453  F        0
H        6.78202892       6.52695113       2.93525138  F        0
H        1.73086689      12.60761804      10.35624453  F        0
H       13.51650676      10.58100877      14.61047976  F        0
H        4.05829635      10.79936776      17.66371281  F        0
H        6.01932001       6.80354450      15.45091456  F        0
H        3.12887899       8.92429365      13.74983426  F        0
H        8.12388129      10.93300164      17.21761941  F        0
H        5.82176689      17.87210706      15.75639142  F        0
H        2.98936131      16.34896307      13.39901228  F        0
H        2.98936131      13.24709329      13.39901228  F        0
Fe       9.00173641      10.87661228      10.14266417  T        1
