142
Lattice="20.102 0.0 0.0 0.0 19.731 0.0 0.0 0.0 13.253" Properties=species:S:1:pos:R:3:move_mask:L:1:tags:I:1 i=77 E=-3472.0240129048 regions="_JSON [\"Active\"]" n_terminators=32 energy=-961.9072384631295 pbc="F F F"
O       10.23092338       8.86156234       9.77666906  T        0
O       -0.02188965       8.35268901      11.09301605  T        0
O       10.04139991      11.45481779       3.72260221  T        0
O        2.17203355      11.17328247       3.88824667  T        0
O        7.68833925       8.64614460      10.50705387  T        0
O        8.52915114       2.86699379       8.52622298  T        0
O        1.98914473      12.70643821       1.73382039  T        0
O        8.58429409       7.32067262       8.35294465  T        0
O        2.19179166       9.98045453       1.59119920  T        0
O        8.29367510       9.99119191       8.31819389  T        0
O        3.73069790      11.21959077       6.03914488  T        0
O        6.60259143       8.69482661      12.85173890  T        0
O        3.56362791       8.98399327       4.62732265  T        0
O        6.87706396      11.03105227      11.52647255  T        0
O        3.62932280       0.70209702       5.00810811  T        0
O        5.03217031       1.09927575      10.97304405  T        0
O        4.82334733      11.11602044       3.59904109  T        0
O        5.06452932       9.27415504      10.69260914  T        0
O        6.26495514       2.43488321       1.31854726  T        0
O        4.67297914      12.67011443       8.14474809  T        0
O        5.73434849       7.23021042       1.41996829  T        0
O        6.14252915      10.80949870       7.04275273  T        0
O        4.03380891       8.83039602       0.04442824  T        0
O        3.92266840      10.12189668       8.44719299  T        0
O        5.93851346       9.90382728       1.53079048  T        0
O        2.59989822       2.05193415       1.64469763  T        0
O        8.15212944      12.57298006       7.59277705  T        0
O        1.99216968       7.39337530       0.91530230  T        0
O        8.46865357      10.69275098       5.77722515  T        0
O        1.69464017       9.61621995      12.75655798  T        0
O        2.56753271       1.37273178       9.92103299  T        0
O        7.47409543      11.08086704       3.35201918  T        0
O        2.48762244       8.85134777      10.29143976  T        0
O        9.04077911       8.97277506       3.80752942  T        0
O        0.73775786      10.88575001      10.64138123  T        0
O        8.31769624       0.80009988       3.81799017  T        0
O        4.59655651       2.20052101       8.53433767  T        0
O        6.15708231      12.59941100       1.74683544  T        0
O        4.26356322       7.50136081       8.85407563  T        0
O        0.00250640       6.81653677       2.93148438  T        0
O        0.12094135       2.60852730       2.67062477  T        0
O       10.40076861       2.53784581       3.74435551  T        0
O       10.21536202       6.54058468       3.64390288  T        0
O        2.41160482       6.70891512       3.81533096  T        0
O        2.44201332       2.98074810       3.97118919  T        0
O        1.70340183       4.63621120       1.99132412  T        0
O        3.62843333       6.72542342       6.12481284  T        0
O        3.87128686       3.04324459       6.08059253  T        0
O        5.09410376       6.91033526       3.94171679  T        0
O        5.12663508       2.59074818       3.75063908  T        0
O        4.30888154       4.79604903       7.80215697  T        0
O        6.37450269       6.67554295       7.00613958  T        0
O        6.40109466       3.26779900       6.90620341  T        0
O        8.45172666       4.99428135       7.06522707  T        0
O        8.63797204       7.24081586       5.71996911  T        0
O        8.72848180       2.61190367       5.84349158  T        0
O        7.64647275       6.74588546       3.25635801  T        0
O        7.74227485       3.22994686       3.44214015  T        0
O        5.91476901       4.82758563       2.50241152  T        0
Si       1.54153455      11.25266170       2.37015305  T        0
Si       8.69140453       8.69673515       9.22320437  T        0
Si       3.58107506      10.62220414       4.52748740  T        0
Si       6.53889448       9.41710591      11.37723331  T        0
Si       4.60536268      11.18810932       7.42195417  T        0
Si       5.56160351       8.62587145       0.59921506  T        0
Si       7.75911186      11.02714409       7.19533467  T        0
Si       2.44191789       8.86508537       0.43043216  T        0
Si       8.75673146      10.53909188       4.18133389  T        0
Si       1.23684263       9.40696605      11.18221155  T        0
Si       4.14037298       1.02934189       9.58870662  T        0
Si       6.07103605      11.16850583       2.54711706  T        0
Si       3.94602786       8.90492131       9.55676167  T        0
Al       1.63221142       6.35085820       2.22649675  T        0
Si       1.66483240       3.11340613       2.51259331  T        0
Si       3.69401911       7.36745918       4.61098961  T        0
Si       3.78003832       2.28869925       4.59696229  T        0
Al       4.75620109       6.53515130       7.53063184  T        0
Si       4.86853387       3.31031174       7.39950671  T        0
Si       7.97152343       6.56407418       7.04282455  T        0
Si       8.03200162       3.43406524       7.06747636  T        0
Si       8.87781627       7.38068446       4.11956427  T        0
Si       8.84345562       2.30327640       4.23110608  T        0
Si       6.12626332       6.42092718       2.77680157  T        0
Si       6.25944954       3.24615153       2.74669487  T        0
O        6.59033735       8.47415615      -0.66657582  T        0
O        1.52857388       9.47479211      -0.80247084  T        0
O        4.40639355      -0.45465486       8.91220980  T        0
O       -0.09694656      11.11355209       2.44246603  T        0
O       -4.58293099       7.27209663       5.28948704  T        0
O       -4.37290524       2.60509440       5.23122031  T        0
O       -2.31417033      11.10866486       0.82249413  T        0
O       -2.55864190      11.02778153       3.47126510  T        0
O       -1.78986747       0.72941767       2.96115116  T        0
O       -1.52401153       8.90035899       2.12601506  T        0
O       -4.77124049       2.79664453       2.48076841  T        0
O       -4.76258898       7.13955045       2.53389520  T        0
O       -1.76624814       2.30579005       0.78657588  T        0
O       -1.78866100       6.40430950       1.06920464  T        0
O       -2.39417141       3.20858086       3.34831663  T        0
O       -2.46462748       6.88214198       3.65112162  T        0
O       -4.27680533       4.93920974       4.09512632  T        0
Si      -1.61563990      10.54392234       2.20635393  T        0
Si      -1.45491798       2.24386257       2.40517811  T        0
Si      -1.48557609       7.30282297       2.40867511  T        0
Si      -3.96912207       3.34568690       3.81330158  T        0
Si      -4.05810243       6.54514741       3.90664902  T        0
H       10.95532307       8.85008497       9.12727255  F        0
H       -0.89571882       8.42972886      10.66739018  F        0
H       10.94686465      11.30097846       4.04088346  F        0
H        8.32487049       1.96348467       8.80281458  F        0
H        2.20758188      13.00694286       0.83020008  F        0
H        6.01931354       8.91222751      13.59787507  F        0
H        6.45001595      11.67065412      10.93294989  F        0
H        3.45924363      -0.04624542       4.41174334  F        0
H        5.99284639       0.93401564      11.03719697  F        0
H        5.69664664       1.68513527       1.05659762  F        0
H        4.03182275      12.92715973       8.82439874  F        0
H        2.35337064       1.61243811       0.82192755  F        0
H        8.21123678      12.90527891       8.50458507  F        0
H        2.15673527       8.97653516      13.32343298  F        0
H        1.92726146       1.06764952      10.59110356  F        0
H        1.38462403      11.60834528      10.56602327  F        0
H        8.57917594      -0.10444883       4.04180490  F        0
H        5.53537813      12.95496052       1.09262639  F        0
H       11.09748793       3.17088023       4.02620164  F        0
H       11.09748793       6.69447189       4.02620164  F        0
H        6.58577874       9.14969547      -1.35751146  F        0
H        1.54448592       9.14594745      -1.70877228  F        0
H        4.32395248      -0.66310163       7.96405278  F        0
H       -4.35421061       8.18021682       5.56988654  F        0
H       -4.35421061       1.68513522       5.56988652  F        0
H       -2.15644976      10.75416907      -0.07046469  F        0
H       -3.49783775      11.30937631       3.49139018  F        0
H       -1.47168132      -0.10444883       2.58467926  F        0
H       -5.70518556       2.56164176       2.37811508  F        0
H       -5.70518557       7.30371036       2.37811510  F        0
H       -2.04192549       3.05661076       0.22907734  F        0
H       -2.04192548       6.80874135       0.22907734  F        0
Fe       2.62558405       4.86983925       6.46772441  T        0
Fe       0.49589068       6.34643236       4.79005707  T        1
O        0.75896734       4.58189175       5.84876205  T        2
O        0.72229747       5.84596544       6.68496398  T        3
