147
Lattice="24.397 0.0 0.0 0.0 24.397 0.0 0.0 0.0 24.397" Properties=species:S:1:pos:R:3:move_mask:L:1:tags:I:1 i=41 E=-6943.8331748197 regions="_JSON [\"Active\"]" n_terminators=24 energy=-1044.804087027095 pbc="F F F"
O        9.62897371      14.62123654      -0.10772470  T        0
O       12.31332499       9.55169619       2.48193790  T        0
O       14.88725178      21.06050359       6.21416517  T        0
O       12.14196087      15.63648687       8.87036919  T        0
O        9.69299686      18.60167995       3.41389305  T        0
O       15.65733231       9.43831116       6.12644468  T        0
O       18.27443107      14.81179092       8.88183037  T        0
O       21.04123998      12.11287166       3.42893406  T        0
O       20.91785833      15.72217783      -0.01512581  T        0
O       18.34607568      20.89924453       2.64264274  T        0
O       14.63404837       9.60892844       0.10401899  T        0
O        9.57022314      12.23072022       2.55465182  T        0
O       21.05714676      14.85461666       6.16142354  T        0
O       15.63336258      12.13553062       8.86755430  T        0
O       18.26730671       9.43602328       3.49337588  T        0
O        9.43503147      15.61657631       6.19287681  T        0
O       14.80308433      18.25949159       8.89571025  T        0
O       11.87393798      20.82044002       3.40226538  T        0
O       15.81752419      20.87134824      -0.22959460  T        0
O       21.00321629      18.24620362       2.59305803  T        0
O       11.58009562      13.86599876       1.82363916  T        0
O       13.98406791      11.59143386       1.86642098  T        0
O       19.16972918      16.45032217       1.88020877  T        0
O       16.51852174      19.06362279       1.91248753  T        0
O       10.29689943      10.26313122       0.88096474  T        0
O       11.22019578      16.64775848       4.51278386  T        0
O       13.90917034      19.35020361       4.42212104  T        0
O       13.97276135      16.46610645       7.05753224  T        0
O       19.26062267      13.91988580       4.36888712  T        0
O       16.55826469      11.32394637       4.40549728  T        0
O       16.47327691      13.96670588       7.05835778  T        0
O       20.33289207      20.24300267       0.92972107  T        0
O       12.03548179      12.00352994       3.59482170  T        0
O       18.49701406      18.41476341       3.56619054  T        0
O       12.16764988       8.62392177      -0.01354397  T        0
O        8.65693577      12.12081287       0.02016591  T        0
O       12.03972864      14.85172796       6.28056762  T        0
O       12.27593412      18.22838429       2.66459969  T        0
O       15.53658843      18.43576723       6.29063517  T        0
O       18.43681284      15.54352076       6.27437823  T        0
O       18.44036680      12.03902506       2.70341282  T        0
O       14.84897967      12.03596217       6.28341940  T        0
O       18.35818057      21.72890683       0.08932936  T        0
O       21.81476785      18.24556029       0.04016724  T        0
O       10.42218700      16.51049023       1.94823759  T        0
O       14.04727272      10.42303717       4.31064087  T        0
O       20.07118809      13.93100768       1.79083784  T        0
O       16.54565106      20.02131597       4.41633017  T        0
O       16.45058028      10.45677275       1.88042670  T        0
O       10.47005785      14.05073229       4.29987230  T        0
O       13.86842498      20.07674869       1.80164125  T        0
O       20.08775476      16.48307899       4.38300270  T        0
O       20.07327272      22.73652695       1.93563521  T        0
O        7.80485972      10.39639907       1.93626611  T        0
O       16.52763349      16.52461323       7.87136711  T        0
O       13.91927389      13.91907034       7.91488719  T        0
O       22.87369930      19.95852128       1.81997403  T        0
O       10.46765206       7.73797370       1.88033266  T        0
Al      10.88146411      15.24875901       0.87216292  T        0
Si      13.06428987      10.85105650       3.10175539  T        0
Si      19.65330907      15.23888882       0.90269016  T        0
Si      17.45444523      19.59353155       3.10653544  T        0
Si      15.21435167      10.88317015       0.92802763  T        0
Si      10.87771751      13.05405946       3.07814398  T        0
Al      15.27068739      19.65317362       0.85571477  T        0
Si      19.68552470      17.41629882       3.10441750  T        0
Si       9.06571679      11.25323451       1.32977128  T        0
Si      10.80082725      15.29032304       5.32394046  T        0
Si      13.02188778      19.68972557       3.09312084  T        0
Si      15.20989905      17.43266626       7.52632112  T        0
Si      19.69761198      15.20055919       5.30000192  T        0
Si      17.45728709      10.82246100       3.13471471  T        0
Si      15.23010419      13.02052330       7.53702037  T        0
Si      21.50119387      19.18620242       1.34493028  T        0
Si      11.28224320       9.03600810       1.29959052  T        0
Si      15.29137073      10.81649817       5.30926265  T        0
Si      19.70418621      13.01119126       3.08502218  T        0
Si      17.43710557      15.21237974       7.51731810  T        0
Si      15.23501506      19.71169591       5.32235941  T        0
Si      10.85310702      17.47305288       3.14631109  T        0
Si      13.01788259      15.23079808       7.53478074  T        0
Si      19.27102538      21.40439157       1.39362074  T        0
O       14.71671299      12.19880548      -2.59716267  T        0
O       15.77319458      18.45418634      -2.48122532  T        0
O       12.11653689      14.64276227      -2.49524177  T        0
O       18.36303070      15.69818224      -2.60872956  T        0
O       14.00801771      13.98623682      -0.71733258  T        0
O       16.50625718      16.46873906      -0.85840382  T        0
O       13.00891593      10.24575667      -1.93062063  T        0
O       10.09169941      12.87596353      -2.07919589  T        0
O       17.61900063      20.43464965      -2.12529805  T        0
O       20.30497351      17.45458845      -1.98639387  T        0
O       12.28839112      15.85690596      -0.06318281  T        0
O       15.65138384      12.09135201      -0.06990498  T        0
O       18.41028398      14.81001061      -0.07066701  T        0
O       14.64500954      18.15970988      -0.02577014  T        0
O       12.20495254      12.18914079      -3.52220360  T        0
O       18.24558829      18.23186360      -3.46112909  T        0
O       16.52730446      13.96131201      -1.74743071  T        0
O       14.07556021      10.44795534      -4.42682670  T        0
O       22.79317640      16.43214424      -1.71147325  T        0
O       16.48195857      19.97701898      -4.51701734  T        0
O        7.61831856      13.92944785      -1.64016040  T        0
O       14.08813481      16.39760298      -1.95441535  T        0
O       10.49559809      14.03524065      -4.48326229  T        0
O       16.79413711      22.96848378      -1.58561047  T        0
O       19.99638146      16.46022611      -4.49922661  T        0
O       14.06595047       7.76163165      -1.73478644  T        0
Si      15.25569735      13.05675521      -1.32951835  T        0
Si      15.26077943      17.40175742      -1.35230055  T        0
Si      13.08855899      15.25656526      -1.35104884  T        0
Si      17.47217922      15.24112781      -1.32205418  T        0
Si      13.45949949       9.04636916      -0.91503673  T        0
Si      11.20534738      13.42744865      -3.13388385  T        0
Si      17.11825169      21.48567330      -0.94632725  T        0
Si      19.24247154      16.98276133      -3.13749297  T        0
Si       9.00916561      13.40515427      -0.94432431  T        0
Si      13.47932664      11.25453424      -3.13195991  T        0
Si      21.45940264      16.97859063      -0.92031502  T        0
Si      17.04283935      19.28930609      -3.12987273  T        0
H       14.01033133      21.15748981       6.62630180  F        0
H       11.67124922      16.48560174       8.95913012  F        0
H        9.33839640      18.82463975       4.28720704  F        0
H       16.48559112       9.33840607       6.62628668  F        0
H       18.82464116      14.01032609       8.95915608  F        0
H       21.15750258      11.67126816       4.28721909  F        0
H       21.15748967      14.01033142       6.62630180  F        0
H       16.48560162      11.67124930       8.95913012  F        0
H       18.82463962       9.33839646       4.28720704  F        0
H        9.33840600      16.48559124       6.62628668  F        0
H       14.01032599      18.82464129       8.95915608  F        0
H       11.67126808      21.15750273       4.28721909  F        0
H       20.83112530      23.15241223       1.48839475  F        0
H        7.34352333       9.66479174       1.48837704  F        0
H       23.15241204      20.83112542       1.48839475  F        0
H        9.66479163       7.34352337       1.48837704  F        0
H       13.68673308       9.66480596      -4.85513656  F        0
H       23.15240156      16.80916493      -2.53384338  F        0
H       16.80913871      20.83112323      -4.85512183  F        0
H        7.34352146      13.68671965      -2.53387758  F        0
H        9.66480591      13.68673318      -4.85513656  F        0
H       16.80916481      23.15240172      -2.53384338  F        0
H       20.83112308      16.80913882      -4.85512183  F        0
H       13.68671953       7.34352150      -2.53387758  F        0
Fe      13.70086343      13.79596886       1.60831826  T        0
Fe      13.65288442      17.00565120       1.40799742  T        1
O       14.27429597      15.43065428       2.16379807  T        2
