145
Lattice="20.102 0.0 0.0 0.0 19.731 0.0 0.0 0.0 13.253" Properties=species:S:1:pos:R:3:move_mask:L:1:tags:I:1 i=77 E=-3472.0240129048 regions="_JSON [\"Active\"]" n_terminators=34 energy=-982.4303950385615 pbc="F F F"
O       10.00325732      18.65351788       4.04634790  T        0
O       12.11271125      18.51528886       2.49412077  T        0
O       12.00978126      17.06768441       4.78826388  T        0
O       12.19670677      12.69644701       4.57513230  T        0
O       12.37694062      19.69396355       4.85154391  T        0
O        4.28861339      19.04172218       5.77847726  T        0
O        6.98944571      18.69501460      10.98258886  T        0
O        6.03922521      10.55413627      10.72157023  T        0
O        3.62581383      12.14875651       7.95012867  T        0
O        3.84736345      17.13062081       7.68073955  T        0
O       14.69309521      17.13980559      11.83385466  T        0
O       13.80708792      12.27561047      11.95882471  T        0
O        6.03936337      18.73092870       7.61951069  T        0
O       16.15556204      18.88716070      13.27483249  T        0
O        3.69253111      19.67897683       8.37317759  T        0
O       14.39474638      19.74881259      11.43141129  T        0
O        7.95122852      12.39093293       7.63399871  T        0
O        8.04117901      16.98605128       7.84441334  T        0
O        8.04918450      18.78324628       5.84325788  T        0
O        7.52471201      18.30396811       3.23219493  T        0
O       12.03371037      10.44050242       8.74632989  T        0
O       11.02175824      19.01684047       9.49771045  T        0
O        9.84124930      16.78326335       9.71972805  T        0
O       10.13340135      12.27465195       9.30835138  T        0
O        7.37798230      16.13645313      10.32229111  T        0
O        7.79054546      12.58095826      10.36742911  T        0
O        8.79290185      14.51683666       8.72124154  T        0
O        5.78401674      16.75152127      12.77217836  T        0
O        6.09761039      12.73140769      12.42249693  T        0
O        4.60721503      16.91653603      10.21764381  T        0
O        5.22633567      12.90729189       9.94057529  T        0
O       15.43647960      12.40639878       9.92076096  T        0
O       15.44740693      16.32535875       9.36725075  T        0
O       14.15556405      12.68715481       6.51138892  T        0
O       14.17305100      16.97216921       6.36471787  T        0
O       12.60293355      14.82613752       6.04996343  T        0
O       11.64891961      12.55103805       7.18426126  T        0
O       11.69134196      16.98167638       7.41523414  T        0
O        2.00249279      16.52611924       9.54928400  T        0
O        2.64967029      12.91356851      10.41830741  T        0
O       12.74619221      12.90141257       9.57651200  T        0
O       12.80805990      16.77026632      10.03171007  T        0
O        3.75237590      14.73020195       8.76331027  T        0
O       14.21680597      14.65904398      10.88526876  T        0
Si      11.62339311      18.47294572       4.06570587  T        0
Si       4.42679388      18.61774865       7.36635068  T        0
Si      14.69038367      18.59865548      12.56356109  T        0
Si       7.61375131      18.48345016       7.35939524  T        0
Si       8.47025069      19.12412543       4.29216415  T        0
Si       8.46591812      16.03674626       9.15053405  T        0
Si       8.65627196      12.91495646       9.02473780  T        0
Al       6.10474787      17.04856897      11.09974017  T        0
Si       6.29704974      12.17740747      10.91293534  T        0
Si      12.64206988      13.20786030       6.07423632  T        0
Si      12.60211379      16.45565376       6.19311683  T        0
Si      11.64740133      12.04110277       8.73744531  T        0
Al      11.47315507      17.29665556       9.10144428  T        0
Si       3.58816693      16.32478696       9.11360921  T        0
Si       3.78490678      13.16715186       9.24548178  T        0
Si      14.06279312      13.07421540      10.54175210  T        0
Si      14.24925039      16.24985088      10.51772482  T        0
O        5.55834667      22.37172255      14.69358888  T        0
O        4.01772699      20.55009319      13.38574261  T        0
O        5.90228954      19.72851968      15.17898748  T        0
Si       5.49225690      20.84470147      14.06400745  T        0
O       10.18166725      21.43667253       9.16888276  T        0
O        7.91186653      21.01696492      10.48020137  T        0
O        7.85505399      22.25792664       8.08341700  T        0
O        8.40267012      19.58880933       8.37256920  T        0
O        6.46434830      20.71940852      12.72544153  T        0
O        5.22756699      20.68105984      10.31834731  T        0
O       15.62562210      21.21652328       9.53746681  T        0
O       14.24501106      20.71180410       6.54872868  T        0
O       12.32874368      22.25435438       5.38467319  T        0
O       11.77992050      20.46801874       7.32082268  T        0
O        2.59921522      21.37091158      10.17764000  T        0
O       12.86467078      21.00291037       9.67292474  T        0
O        8.35186106      20.73973130       4.08361684  T        0
O        4.30178294      22.27112598       8.39374619  T        0
O       14.14142103      22.48515798      11.35067825  T        0
O       10.26028888      22.61956852       3.70297928  T        0
O       12.76317596      23.22422650       2.87263671  T        0
O       11.60386543      24.68181798       4.83178864  T        0
O        3.40736462      22.77566172       5.86725946  T        0
O        4.04639211      24.73475546       7.61674044  T        0
O        5.95745860      23.15640468       6.47347614  T        0
O        7.87542603      24.80513923       7.43988113  T        0
O        8.43162882      22.93267570       5.57539848  T        0
O        7.75717058      23.11001352       2.96195497  T        0
Si       8.58817050      21.15361060       8.98239024  T        0
Si       6.56189456      20.29343625      11.15519770  T        0
Si      12.69223564      20.78922591       6.00757979  T        0
Si      11.52103179      20.48409762       8.92976088  T        0
Si       3.94622338      20.98252576       9.32704547  T        0
Si      14.28864589      21.08313260      10.50086523  T        0
Si      11.74096662      23.18427729       4.17002275  T        0
Si       4.43099167      23.22980242       7.07967076  T        0
Si       7.53331794      23.30675313       6.86639593  T        0
Si       8.69541301      22.33452220       4.07469185  T        0
O       13.52641387      18.61512220      13.72259834  T        0
O        5.02289143      18.71656673      17.52225853  T        0
O        7.49668492      18.13911300      16.68978389  T        0
O        6.03478822      11.90699442      14.82932719  T        0
O        5.53545816      17.05185520      15.40406331  T        0
O        5.66467218      14.55418889      14.33772138  T        0
O        3.50408954      15.95818422      14.11189828  T        0
O        3.71293969      12.69990667      13.76411742  T        0
Si       5.95659902      18.41782410      16.18633437  T        0
Si       5.16030887      16.10614543      14.10896479  T        0
Si       5.32863428      13.02055717      13.84455851  T        0
H       13.03074803      18.74401529       2.26762503  F        0
H       11.77741500      11.82883679       4.45015372  F        0
H        3.46536401      19.01504758       5.26900440  F        0
H        6.59189033       9.81912404      11.03827922  F        0
H        4.35449611      11.55048736       7.68308178  F        0
H       14.40563885      11.55048737      12.19637067  F        0
H       16.97340650      18.78964577      12.75613404  F        0
H        7.69777211      11.47779022       7.44841170  F        0
H        6.55301950      18.28668004       3.13509397  F        0
H       11.52310774       9.76092419       9.21110646  F        0
H       15.75661379      12.42699387       9.00459924  F        0
H       15.75661380      17.16906248       9.00459925  F        0
H       14.91456245      13.24933472       6.30897701  F        0
H       14.91456244      16.34672163       6.30897701  F        0
H        1.73086688      16.98843832      10.35624453  F        0
H        1.73086689      12.60761804      10.35624453  F        0
H        6.01932000      22.79280763      15.45091456  F        0
H        3.12887898      20.67205847      13.74983427  F        0
H       16.04398914      20.66501564       8.84225549  F        0
H       15.03932989      20.71065726       5.99268335  F        0
H        1.92726146      20.79864952      10.59110356  F        0
H       14.56690736      22.82060840      12.16034191  F        0
H       13.35632229      22.53549888       2.51220488  F        0
H       11.61525895      25.57715817       4.45233654  F        0
H        3.68470477      22.26783452       5.08310689  F        0
H        4.37526294      25.57806860       7.26036481  F        0
H        7.92514400      25.57871651       6.85279547  F        0
H        6.78202891      23.06940099       2.93525138  F        0
H       13.51650675      19.01504758      14.61047976  F        0
H        4.05829635      18.79668859      17.66371282  F        0
H        8.12388129      18.66305472      17.21761942  F        0
H        5.82176689      11.72394931      15.75639142  F        0
H        2.98936131      16.34896307      13.39901228  F        0
H        2.98936131      13.24709329      13.39901228  F        0
Fe       8.96333825      18.57148777      10.21252858  T        1
