147
Lattice="24.397 0.0 0.0 0.0 24.397 0.0 0.0 0.0 24.397" Properties=species:S:1:pos:R:3:move_mask:L:1:tags:I:1 i=41 E=-6943.8331748197 regions="_JSON [\"Active\"]" n_terminators=24 energy=-1045.283649930014 pbc="F F F"
O        9.41263989      14.60295329      -0.11800686  T        0
O       12.31474117       9.45972437       2.56698054  T        0
O       14.68305367      20.84730931       6.03595969  T        0
O       12.28781454      15.74464225       8.79648577  T        0
O        9.65204949      18.38343862       3.76361748  T        0
O       15.65929429       9.42691218       6.12844620  T        0
O       18.37773754      14.86395763       8.84897261  T        0
O       21.07380333      12.16677478       3.45123904  T        0
O       21.06173014      15.63155458      -0.06589532  T        0
O       18.33231375      21.04294229       2.64525249  T        0
O       14.76300014       9.56859872       0.01857536  T        0
O        9.59940966      12.14817517       2.61006870  T        0
O       21.07218817      14.82223120       6.09022280  T        0
O       15.65214755      12.16101191       8.86819877  T        0
O       18.34622556       9.43401382       3.44593216  T        0
O        9.59419708      15.77485927       6.10597922  T        0
O       14.78468573      18.22166976       8.79963626  T        0
O       12.11857935      20.91918208       3.75057340  T        0
O       15.58317656      20.97631467      -0.23863851  T        0
O       21.05737699      18.30232284       2.62902684  T        0
O       11.46422171      13.92453421       1.86234833  T        0
O       14.03643444      11.39957003       1.84995959  T        0
O       13.09515426      20.16874293       8.08911031  T        0
O       10.30952392      17.41802812       8.11418180  T        0
O       10.06219743      20.47420158       5.43032431  T        0
O       19.26075054      16.47816500       1.76184864  T        0
O       16.57125649      19.27450774       1.64605464  T        0
O       10.33180839      10.16472521       0.93534862  T        0
O       11.45877320      16.44555869       4.32824982  T        0
O       14.10009667      18.85979541       4.28426340  T        0
O       14.06643790      16.46817784       6.90184826  T        0
O       19.25332389      13.98581303       4.27899179  T        0
O       16.58968178      11.26679073       4.36547329  T        0
O       16.59970574      13.91618826       7.04321694  T        0
O       12.09517853      11.97254422       3.53983304  T        0
O       12.19076789      21.82173876       6.26658435  T        0
O       12.25948932      18.25484933       9.69895877  T        0
O        8.71615377      18.31627204       6.23801762  T        0
O       18.43577241      18.42198966       3.32739471  T        0
O       12.26590439       8.60696634       0.03312132  T        0
O        8.73094647      12.01470702       0.07899502  T        0
O       12.10026593      14.81865845       6.29111760  T        0
O       12.12789465      18.20771122       2.67320294  T        0
O       15.75826456      18.41476840       6.29247031  T        0
O       18.47538888      15.58164822       6.23404296  T        0
O       18.47946850      12.03644427       2.68515907  T        0
O       14.92418595      12.03709115       6.25810666  T        0
O       10.17794835      16.49970862       1.94376685  T        0
O       14.04944609      10.39476361       4.34395433  T        0
O       14.14980795      22.65084676       7.93176719  T        0
O       10.50177993      16.43088698      10.62728622  T        0
O        7.62932683      19.92859830       4.39921064  T        0
O       10.59953973      22.95193190       4.47728402  T        0
O       20.09362719      13.92276053       1.72257667  T        0
O       16.51719090      19.99791653       4.26450176  T        0
O       16.54709114      10.42918827       1.81162783  T        0
O       10.48760829      13.93531237       4.37136405  T        0
O        7.80748013      16.37454762       7.89771346  T        0
O       14.08639966      20.00973346      10.61461107  T        0
O       14.01429342      20.10642216       1.66912320  T        0
O       20.06026214      16.54369529       4.32769275  T        0
O        7.84630397      10.31803164       2.00256875  T        0
O       16.56858256      16.46819151       7.88107228  T        0
O       14.04097398      13.96226075       7.87589484  T        0
O       10.53333539       7.61891507       1.83732659  T        0
Al      10.66661468      15.23014766       0.87107409  T        0
Si      13.11264823      10.78906929       3.08035745  T        0
Si      13.52691314      21.38584035       7.08029637  T        0
Si      11.32743629      16.97173473       9.31595529  T        0
Si       9.03349452      19.29798672       4.96820483  T        0
Si      19.72499092      15.23143098       0.81335028  T        0
Si      17.45963759      19.67714302       2.95927877  T        0
Si      15.26808828      10.84484324       0.90023983  T        0
Si      10.90417975      12.99214082       3.09919247  T        0
Si       9.10156852      16.98874921       7.09943372  T        0
Si      13.54969300      19.18017825       9.30466265  T        0
Si      11.25085420      21.52057373       4.95558348  T        0
Si      15.25206533      19.69535130       0.74659702  T        0
Si      19.70091826      17.44411246       3.00843087  T        0
Si       9.11682030      11.15825032       1.39428949  T        0
Si      10.88817021      15.21732996       5.28989959  T        0
Al      13.04594792      19.68369263       3.02001358  T        0
Si      15.30213367      17.40439220       7.48374641  T        0
Si      19.71858691      15.22786457       5.23767910  T        0
Si      17.50225260      10.80083293       3.08779572  T        0
Si      15.31522145      13.01375746       7.50206328  T        0
Si      11.34539867       8.95454643       1.33958816  T        0
Si      15.31930510      10.79395774       5.28251303  T        0
Si      19.72757354      13.02649453       3.04218022  T        0
Si      17.51498107      15.19914615       7.48943558  T        0
Si      15.27444391      19.55129531       5.22628070  T        0
Si      10.77404785      17.41447284       3.10897421  T        0
Si      13.12356945      15.24496008       7.48544880  T        0
O       14.64109849      12.25616700      -2.56127378  T        0
O       15.69935041      18.25134428      -2.79652814  T        0
O       12.18113259      14.61248658      -2.52948578  T        0
O       18.32010978      15.65580907      -2.76440849  T        0
O       14.07818735      14.07340977      -0.64274776  T        0
O       16.52334186      16.48935744      -0.92022752  T        0
O       13.02085607      10.21549276      -1.92363406  T        0
O       10.10504208      12.90898294      -2.03586100  T        0
O       12.17676028      15.62100268      -0.01595187  T        0
O       15.68783957      12.07807502      -0.08475765  T        0
O       18.47112222      14.86455610      -0.17036327  T        0
O       14.87986397      18.39249889      -0.18691633  T        0
O       12.15511989      12.14556260      -3.51607186  T        0
O       16.53375588      13.96712935      -1.76846133  T        0
O       14.06004260      10.45616861      -4.42010538  T        0
O        7.46573398      13.43594432      -1.61113194  T        0
O       13.99869954      16.48224665      -1.83704088  T        0
O       10.47250309      14.05142832      -4.44877941  T        0
O       14.10596594       7.73766574      -1.74820999  T        0
Si      15.26445331      13.06963442      -1.29596616  T        0
Si      15.28578253      17.43464856      -1.42770423  T        0
Si      13.06243642      15.25333356      -1.32717969  T        0
Si      17.48441914      15.25917199      -1.40103911  T        0
Si      13.52585988       9.02571689      -0.91400083  T        0
Si      11.20522965      13.41779350      -3.12096806  T        0
Si       8.94731859      13.28616380      -0.91966022  T        0
Si      13.45850985      11.24876365      -3.11370183  T        0
H       16.48559112       9.33840607       6.62628668  F        0
H       18.82464116      14.01032609       8.95915608  F        0
H       21.15750258      11.67126816       4.28721909  F        0
H       21.15749781      16.48550533      -0.52720743  F        0
H       18.82463422      21.15752504       1.81198193  F        0
H       21.15748967      14.01033142       6.62630180  F        0
H       16.48560162      11.67124930       8.95913012  F        0
H       18.82463962       9.33839646       4.28720704  F        0
H       16.48550522      21.15749796      -0.52720744  F        0
H       21.15752488      18.82463433       1.81198193  F        0
H       13.68673605      23.15239550       8.63276462  F        0
H        9.66477675      16.80915558      10.95402362  F        0
H        7.34351903      20.83116256       4.61081863  F        0
H        9.66481601      23.15243056       4.61081458  F        0
H        7.34350493      16.80917637       8.63275504  F        0
H       13.68672539      20.83112809      10.95404502  F        0
H        7.34352333       9.66479174       1.48837704  F        0
H        9.66479163       7.34352337       1.48837704  F        0
H       16.48557283      18.82464187      -2.86023677  F        0
H       18.82464171      16.48557294      -2.86023676  F        0
H       13.68673308       9.66480596      -4.85513656  F        0
H        7.34352146      13.68671965      -2.53387758  F        0
H        9.66480591      13.68673318      -4.85513656  F        0
H       13.68671953       7.34352150      -2.53387758  F        0
Fe      13.45059690      14.53258614       1.47632037  T        0
Fe      13.58867831      16.92224707       3.75745136  T        1
O       14.19181540      15.40635789       2.90377817  T        2
