150
Lattice="20.102 0.0 0.0 0.0 19.731 0.0 0.0 0.0 13.253" Properties=species:S:1:pos:R:3:move_mask:L:1:tags:I:1 i=77 E=-3472.0240129048 regions="_JSON [\"Active\"]" n_terminators=34 energy=-1019.1768838386874 pbc="F F F"
O       10.22725544       8.19162485       9.15992181  T        0
O       10.06706272      18.19615544       3.63909535  T        0
O        0.05048764       8.26189713      10.51399783  T        0
O       10.10006655      11.05706980       3.61858518  T        0
O        2.15135847      10.96176729       3.94253184  T        0
O        7.87429273       8.57390581      10.49830313  T        0
O        2.26007691      18.25920627       3.95867765  T        0
O        7.86060203       7.08334890       8.36426325  T        0
O        8.32965796       9.75190760       8.12807285  T        0
O        3.71109488      10.48949771       5.90784822  T        0
O        6.51321820       8.58440801      12.81371796  T        0
O        3.69370107      19.04706481       5.98435148  T        0
O        6.16200332      18.99347820      11.05506900  T        0
O        3.90391887       8.81724258       3.78377269  T        0
O        6.27391220      10.62316993      11.03551762  T        0
O        4.84212353      11.20144310       3.53137866  T        0
O        5.23154557       8.28229742      10.43164836  T        0
O        4.92577466      18.68476358       3.66038907  T        0
O        4.37281120      12.27312494       7.85199590  T        0
O        4.40442150      17.25538982       7.91218622  T        0
O        6.13807386      10.63239284       6.83719752  T        0
O        6.16807406      18.73212258       6.82957257  T        0
O        4.17494422       9.66953263       8.41281952  T        0
O        5.91834691      10.14670012       1.23872029  T        0
O        4.32841958      19.88576503       8.44408429  T        0
O        7.66544125      12.36929310       7.99654407  T        0
O        8.01771432      17.23044839       7.72895965  T        0
O        8.53296272      11.10006221       5.81100290  T        0
O        1.63378624       8.44523716      12.69592199  T        0
O        8.52106504      18.98725323       5.69642667  T        0
O        7.49382908      10.94241446       3.31219143  T        0
O        2.59227381       8.45346032      10.17154124  T        0
O        7.50366175      18.60072108       3.25636811  T        0
O        1.15834310      18.90139139      10.99590979  T        0
O        8.70878968       8.85278361       4.57852416  T        0
O        1.37869922      10.59757371      11.16587601  T        0
O       11.77756877      19.14739635       9.27020125  T        0
O        6.19400178      12.68830868       1.76220669  T        0
O        3.89339820       6.99800386       8.43234485  T        0
O        5.98096189      16.89648515       1.91946436  T        0
O       10.35569614      16.89647651       9.45587220  T        0
O        9.84309894      12.20797293       9.53501446  T        0
O        7.55983719      16.79742139      10.45579215  T        0
O        7.54903890      12.88993230      10.60691520  T        0
O        8.65981183      14.65147578       8.89773823  T        0
O        6.20807236      16.98425959      12.76826662  T        0
O        6.19661477      12.53123244      12.86866782  T        0
O        4.87372750      16.77099846      10.48661977  T        0
O        4.87416605      12.83202396      10.56581440  T        0
O        1.58203903      16.55347537      12.16574195  T        0
O        1.45856836      13.06084144      12.21377120  T        0
O       11.85924321      17.52142043       7.26059426  T        0
O        2.35088379      16.94695384       9.63662360  T        0
O        2.08772140      12.69073202       9.67111661  T        0
O       13.09601793      16.77670592       9.45265270  T        0
O        3.90558931      14.85829646       8.85111749  T        0
Si       8.59540598       8.40277819       9.03295369  T        0
Si       3.65010488      10.37721389       4.27535570  T        0
Si       6.46122912       9.02316231      11.22269108  T        0
Si       3.54569717      19.19314441       4.35435517  T        0
Si       4.55022371      10.73445001       7.27439287  T        0
Si       4.58821421      18.79814473       7.30654875  T        0
Si       7.70972072      10.89799145       7.19769850  T        0
Si       7.81235147      18.74892556       7.12395497  T        0
Si       8.71377270      10.48432478       4.29402710  T        0
Si       1.38793184       8.97356730      11.14776305  T        0
Si       8.79821519      19.12913256       4.08574952  T        0
Si       6.10926360      11.21468707       2.47962700  T        0
Si       3.98964415       8.34463366       9.37318409  T        0
Si       6.06511010      18.41901232       2.51186613  T        0
Al       8.71443948      16.38478300       9.22311135  T        0
Si       8.48868255      13.11475450       9.30441578  T        0
Si       6.24911660      17.36415012      11.17627684  T        0
Si       6.18848053      12.23540926      11.25666512  T        0
Si       1.20735369      17.29026673      10.76380812  T        0
Si       1.12648431      12.18088003      10.86207743  T        0
Si      11.72773173      17.54590639       8.91839246  T        0
Si       3.84671816      16.40442277       9.28316761  T        0
Al       3.70770912      13.16684868       9.32852143  T        0
O       10.14571654      21.31772583       9.29392179  T        0
O        0.04433791      21.32322904      10.47786924  T        0
O        7.79668080      21.05808420      10.52277293  T        0
O        7.82829863      22.55318562       8.37809838  T        0
O        8.21321005      19.89315418       8.16768982  T        0
O        6.49809386      21.03607688      12.82243422  T        0
O        3.21017423      20.74445865       3.90513891  T        0
O        5.16619273      21.36246453      10.48020876  T        0
O        5.87178141      19.44103718       1.23146280  T        0
O        1.58836521      21.01230495      12.63515198  T        0
O       11.60216112      20.98866675       7.21933703  T        0
O        2.57059045      20.98976458      10.10041289  T        0
O       12.80739831      21.56847094       9.61558815  T        0
O        9.18520153      20.68768433       3.70785329  T        0
O        3.85765327      22.52404987       8.37577991  T        0
Si       8.53137497      21.22797224       9.07483324  T        0
Si       6.39931238      20.58869352      11.24207226  T        0
Si       1.34639635      20.52333716      11.07843908  T        0
Si      11.61792955      20.71701618       8.84784712  T        0
Si       3.99213554      21.21381440       9.36232499  T        0
O        1.26737078      12.30585196      14.72205930  T        0
O        1.31135463      17.38697998      14.63866043  T        0
O        5.69215873      12.65476062      15.51731906  T        0
O        5.82904732      16.95131341      15.44951215  T        0
O        5.42292066      14.79151543      14.06846657  T        0
O        3.74969933      16.84767164      13.72855712  T        0
O        3.69450782      12.77671758      13.70631843  T        0
O        2.02657844      14.82327558      14.10630563  T        0
Si       5.30575600      16.40301796      13.99149820  T        0
Si       5.24987548      13.18203650      14.02498598  T        0
Si       2.18329081      16.38561433      13.66532875  T        0
Si       2.12513366      13.24377083      13.67775051  T        0
O       -0.48064017      12.26363659      10.50686433  T        0
O       -0.21332225      16.71344942      10.16750006  T        0
H       10.95532307       8.85008497       9.12727255  F        0
H       10.94686465      18.29507790       4.04088346  F        0
H       -0.89571882       8.42972886      10.66739018  F        0
H       10.94686465      11.30097846       4.04088346  F        0
H        1.81269882      11.30123319       3.09859993  F        0
H        1.81269882      18.29482316       3.09859994  F        0
H        7.84356088       6.72376138       7.45668423  F        0
H        6.01931354       8.91222751      13.59787507  F        0
H        3.60112680       8.06005012       4.30646574  F        0
H        5.72719027       9.20254625       1.33756862  F        0
H        2.15673527       8.97653516      13.32343298  F        0
H        8.66651872       8.12235896       3.93953912  F        0
H        5.53537813      12.95496052       1.09262639  F        0
H        4.51576461       6.77574371       7.71911054  F        0
H        5.53537813      16.64109584       1.09262638  F        0
H       10.76020325      12.42648900       9.31164420  F        0
H       12.09335995      16.67408638       6.85557055  F        0
H       13.32025658      16.39230324      10.31771692  F        0
H       -0.89571882      21.16662326      10.66739019  F        0
H        7.84356087      22.87259074       7.45668424  F        0
H        6.01931354      20.68412461      13.59787507  F        0
H        3.60112680      21.53630199       4.30646574  F        0
H        5.72719026      20.39380587       1.33756863  F        0
H        2.15673526      20.61981695      13.32343299  F        0
H       12.20788616      20.61981982       6.55602502  F        0
H       13.54926599      21.17502420      10.11787433  F        0
H        8.66651872      21.47399316       3.93953912  F        0
H        4.51576461      22.82060840       7.71911054  F        0
H        1.72627225      11.82883678      15.42933042  F        0
H        1.72627225      17.76721957      15.42933043  F        0
H        5.82176689      11.72394931      15.75639142  F        0
H        5.82176689      17.87210706      15.75639142  F        0
H       -1.04605969      13.03623234      10.65268580  F        0
H       -1.04605969      16.55982401      10.65268579  F        0
Fe       5.93277227      13.36847194       7.20905537  T        0
Fe       6.23970201      16.39468856       7.06089861  T        1
O        6.15860670      14.82412348       6.17348296  T        2
