136
Lattice="24.397 0.0 0.0 0.0 24.397 0.0 0.0 0.0 24.397" Properties=species:S:1:pos:R:3:move_mask:L:1:tags:I:1 i=41 E=-6943.8331748197 regions="_JSON [\"Active\"]" n_terminators=32 energy=-912.4324946694228 pbc="F F F"
O       21.69226397       2.58386476       0.06358645  T        0
O       21.87456843       6.16050125       3.51903058  T        0
O       15.56401560       9.68432591       6.24639976  T        0
O       21.00517793      12.46692758       3.53407163  T        0
O       21.00597939       3.56065849      12.50009247  T        0
O       15.53211079       6.31771251       9.75432235  T        0
O       21.87943066      -0.02488678       2.52907312  T        0
O       18.37800534       9.63563405       3.32882549  T        0
O       21.81327845       3.56472772       5.92716868  T        0
O       18.37041064       3.30030417       9.63235851  T        0
O       23.77287578       1.72771444       1.80301459  T        0
O       22.84405686       5.40901058       8.02053387  T        0
O       22.64797118       8.00202803       5.33380341  T        0
O       17.61856501      10.55318098       7.85121642  T        0
O       20.08038044      10.57773935       5.21857449  T        0
O       23.68405242       4.27550297       4.21714383  T        0
O       17.65593566       7.88772549      10.52649556  T        0
O       20.06010850       5.19326078      10.58641411  T        0
O       20.87483077       6.00025277       5.86965633  T        0
O       18.13889633       8.89430806       5.93310318  T        0
O       21.98231075      12.29973212       6.09178403  T        0
O       21.01149724      -0.00032984      -0.00019620  T        0
O       24.33821668       2.67196857       6.28815541  T        0
O       24.39155052       6.26989100       2.58079199  T        0
O       18.07921092       5.90174086       8.94106939  T        0
O       21.97232734       6.11095044      12.28094812  T        0
O       22.64628395       4.36734351       1.75913006  T        0
O       22.65154968       4.37833643      10.50386271  T        0
O       20.13750750       8.04200996       4.35094073  T        0
O       16.64058547       8.00434739       8.00840230  T        0
O       22.64124117      10.49271157       4.36794747  T        0
O       22.81884107       1.73123047       4.29449397  T        0
O       20.06869648       4.40009261       8.01417875  T        0
Al      23.35354375       3.02904391       0.75489959  T        0
Si      23.67137794       4.87773996       9.31295500  T        0
Si      21.39691226       7.11868946       4.79670754  T        0
Si      16.97271272       9.27857850       7.02190457  T        0
Si      21.39205627      11.47893204       4.80021379  T        0
Si      23.23714980       0.79627198       3.00384682  T        0
Si      19.16680367       9.30788062       4.73692231  T        0
Al      21.46958881       4.87520754       7.15087761  T        0
Si      23.60347699       9.27065135       4.87187955  T        0
Si      23.19910514       3.03313782       5.19411226  T        0
Si      19.15566373       4.71468570       9.29538264  T        0
Si      23.18813397       5.27355808       3.02217140  T        0
Si      21.38855226       4.80398441      11.47260010  T        0
Si      16.96426679       7.02374658       9.30158306  T        0
O       24.60951394       3.60968739       8.80998314  T        0
O       24.56937799       8.73978366       3.65306038  T        0
O       26.31123327       6.72600599       4.25321412  T        0
O       26.31863392       4.23766342       6.73741931  T        0
O       24.48397877       9.82010758       6.14207447  T        0
O       24.64753002       6.05706628       9.93367259  T        0
O       26.28917612       8.04994785       1.81638551  T        0
O       26.23851851       1.77551497       8.01954344  T        0
Si      25.41651185       7.45691078       3.07709384  T        0
Si      25.39724220       3.08354335       7.47988145  T        0
O       24.71960954       2.42402159      -2.82784487  T        0
O       26.25082878       1.80637241      -0.68234431  T        0
O       24.36287493      -0.14986650      -3.60507153  T        0
O       26.52621982       4.18217066      -2.06771022  T        0
Si      25.48916237       3.02954000      -1.49652496  T        0
O       24.63180374      -2.71280385       2.42729784  T        0
O       26.31372406      -0.63912206       1.85494210  T        0
O       24.47002162      -3.72754709      -0.07139165  T        0
O       26.33066975      -1.98724599       4.26900646  T        0
Si      25.42932895      -1.40505562       3.01842969  T        0
O       18.36064463       2.76157146      -3.51954795  T        0
O       20.99478776       2.53264571      -6.37127998  T        0
O       15.53656760      -0.18382949      -3.61835075  T        0
O       20.07524961       0.88659797      -4.43838336  T        0
O       22.69457200       1.00732442      -1.82238968  T        0
O       24.44232131       3.62123152      -0.42006557  T        0
O       18.09404606       0.16484188      -2.79847371  T        0
O       21.95811078      -0.02227062      -6.16740350  T        0
O       20.07205491       1.66245570      -1.85896322  T        0
O       22.63481696       1.71170083      -4.38871337  T        0
Si      19.14573223       1.34988511      -3.17460395  T        0
Si      21.38046108       1.28280027      -5.35929646  T        0
Si      23.62380843       1.25307110      -3.16563359  T        0
Si      21.36133482       1.28454962      -0.93608351  T        0
O       18.36929456      -3.52435123       2.75874224  T        0
O       15.55167568      -3.61226781      -0.17482099  T        0
O       20.99957255      -6.39884221       2.52709359  T        0
O       22.66439877      -1.91818352       0.80608374  T        0
O       20.09339798      -4.44358655       0.89883025  T        0
O       24.36979025      -0.26554349       3.51678090  T        0
O       18.12137515      -2.79928282       0.16309159  T        0
O       21.96797345      -6.17543952      -0.01876140  T        0
O       20.11542202      -1.86531825       1.66638769  T        0
O       22.65639712      -4.41755908       1.73405884  T        0
Si      21.42018876      -0.96428558       1.26358046  T        0
Si      21.39234488      -5.37220524       1.29132822  T        0
Si      23.61648016      -3.19051079       1.22827474  T        0
Si      19.17258742      -3.16934717       1.35803916  T        0
O       17.62877335      -1.76384275      -4.44540987  T        0
O       17.63440446      -4.44786222      -1.76486470  T        0
O       16.62040522      -1.92193802      -1.91609197  T        0
Si      16.95153722      -0.93309326      -3.18977732  T        0
Si      16.96885381      -3.19197407      -0.92390168  T        0
H       15.43757914      10.38640764       5.57209357  F        0
H       20.10951523      12.72546585       3.23923157  F        0
H       20.10951519       3.23923103      12.72546793  F        0
H       15.43757911       5.57209275      10.38640946  F        0
H       17.77043279      10.38640226       3.23924444  F        0
H       17.77043311       3.23924387      10.38640412  F        0
H       17.22544067      10.92750153       8.65411313  F        0
H       17.22544070       8.65411150      10.92750362  F        0
H       21.54216027      12.99764967       6.60187561  F        0
H       21.54216028       6.60187434      12.99765198  F        0
H       26.95194123       7.17131746       4.82834527  F        0
H       26.95194124       4.82834452       7.17131883  F        0
H       25.19630608       9.34383456       6.60185911  F        0
H       25.19630604       6.60185806       9.34383627  F        0
H       26.93058105       7.58756876       1.24433203  F        0
H       26.93058086       1.24433163       7.58757011  F        0
H       26.95192867       1.27083937      -1.07240246  F        0
H       25.19622735      -0.50276655      -3.24494277  F        0
H       26.93057835       4.85486043      -1.48866112  F        0
H       26.95192866      -1.07240650       1.27083969  F        0
H       25.19622853      -3.24494603      -0.50276481  F        0
H       26.93057847      -1.48866524       4.85486109  F        0
H       17.77043356       2.85994955      -4.28747201  F        0
H       20.10952426       2.85994950      -6.62656333  F        0
H       15.43756588       0.52708969      -4.28745700  F        0
H       21.54221652      -0.50278066      -6.89866328  F        0
H       17.77043326      -4.28747560       2.85995000  F        0
H       15.43756593      -4.28746062       0.52708992  F        0
H       20.10952426      -6.62656664       2.85995001  F        0
H       21.54221602      -6.89866750      -0.50277915  F        0
H       17.22541613      -2.55520754      -4.82860724  F        0
H       17.22541616      -4.82861063      -2.55520368  F        0
Fe      20.39999595       4.35561281       4.60506767  T        0
Fe      20.72141348       3.43592657       1.58259036  T        1
O       19.76195339       2.93939862       3.29006835  T        2
O       19.39309328       4.34590966       2.84858298  T        3
