144
Lattice="20.102 0.0 0.0 0.0 19.731 0.0 0.0 0.0 13.253" Properties=species:S:1:pos:R:3:move_mask:L:1:tags:I:1 i=77 E=-3472.0240129048 regions="_JSON [\"Active\"]" n_terminators=32 energy=-981.2684836429465 pbc="F F F"
O       10.22033824       8.66771929       9.74089239  T        0
O       10.03782261      11.58051942       3.87212743  T        0
O        2.25802739      11.20103860       3.91623688  T        0
O        7.66680318       8.60933112      10.49712732  T        0
O        8.47239195       2.86533926       8.48580239  T        0
O        2.21337379      12.74317746       1.76849302  T        0
O        8.41228987       7.33723097       8.27046164  T        0
O        2.06851499      10.04647428       1.56717295  T        0
O        8.37125370      10.03634255       8.39758258  T        0
O        3.71619117      11.15881541       6.13263554  T        0
O        6.60694934       8.68097122      12.85925265  T        0
O        3.83262421       9.08861758       4.46534089  T        0
O        6.81460269      10.98757310      11.51988247  T        0
O        3.78938214       0.82019824       4.36681621  T        0
O        5.03946805       1.05142595      10.84577062  T        0
O        4.88737961      11.47103796       3.77458345  T        0
O        5.02271891       9.14651578      10.71725140  T        0
O        6.33140637       2.39461592       1.27438592  T        0
O        4.70758885      12.65186092       8.18767176  T        0
O        5.98180982       7.35671384       1.20279372  T        0
O        6.13090224      10.71347771       7.15444500  T        0
O        4.13875515       9.02856346       0.17332573  T        0
O        3.87017266      10.15275419       8.56597277  T        0
O        5.88933599       9.87602888       1.98010461  T        0
O        2.40376767       2.55673210       1.03042834  T        0
O        8.06244605      12.57890287       7.60340310  T        0
O        1.99987164       7.54300164       0.64603998  T        0
O        8.44166138      10.64669053       5.85097760  T        0
O        2.55326906       1.46703577       9.95796442  T        0
O        7.51969066      11.29949181       3.46924555  T        0
O        2.53732457       8.30431608      10.02499437  T        0
O        9.02501046       9.08489226       3.79846417  T        0
O        8.32676563       0.78942997       3.76617748  T        0
O        4.51508604       2.34914485       8.49394008  T        0
O        6.22212742      12.59005490       1.67008570  T        0
O        4.56620283       7.57318788       8.59158218  T        0
O       -0.06792442       7.00646525       2.65761190  T        0
O        0.12787498       2.71436184       2.56633958  T        0
O       10.44070377       2.48877272       3.76888161  T        0
O       10.28252811       6.71608453       3.49397638  T        0
O        2.35368586       7.01447197       3.58976730  T        0
O        2.50854143       3.07427256       3.67109571  T        0
O        1.58801035       4.87136587       1.92264388  T        0
O        3.65354179       6.79816383       5.87532414  T        0
O        3.81218727       3.01480413       5.93447538  T        0
O        5.01942816       6.85784700       3.60823670  T        0
O        5.20254585       2.93492918       3.67303668  T        0
O        4.27431632       4.86646456       7.55966444  T        0
O        6.41688789       6.61637429       6.61486014  T        0
O        6.35951197       3.26797962       6.82574116  T        0
O        8.45182509       4.97523334       7.01805955  T        0
O        8.82606020       7.22031414       5.66905253  T        0
O        8.68722758       2.58672248       5.79997172  T        0
O        7.66673720       6.86422457       3.24774959  T        0
O        7.83965369       3.25371629       3.34307745  T        0
O        6.17124953       4.91826840       2.19800889  T        0
Si       1.60203811      11.35662459       2.42280351  T        0
Si       8.66343664       8.65089057       9.20729861  T        0
Si       3.67883172      10.71890394       4.56475282  T        0
Si       6.50712321       9.36760156      11.36963295  T        0
Si       4.60000836      11.15416595       7.50766195  T        0
Si       5.66811379       8.89095180       0.71915143  T        0
Si       7.74164472      11.00594095       7.26287222  T        0
Si       2.51211965       9.05007350       0.35370705  T        0
Si       8.75938072      10.63058863       4.25713987  T        0
Si       4.09051900       1.12257771       9.49723513  T        0
Si       6.10335490      11.32156509       2.69688107  T        0
Si       4.01300336       8.78520170       9.47573476  T        0
Al       1.59014431       6.59641558       2.01171933  T        0
Si       1.62749404       3.30808572       2.28242124  T        0
Si       3.72789429       7.47086062       4.37367383  T        0
Si       3.83238754       2.43352160       4.36250304  T        0
Al       4.82322310       6.57260607       7.23682140  T        0
Si       4.80660327       3.34749132       7.25512658  T        0
Si       7.99181428       6.55182538       6.90341974  T        0
Si       7.98964455       3.42378094       7.01555968  T        0
Si       8.93443408       7.47757528       4.06398590  T        0
Si       8.85928972       2.29131799       4.18979224  T        0
Si       6.23087355       6.50471620       2.57429449  T        0
Si       6.37869940       3.35210028       2.60905301  T        0
O        6.73641939       9.36267668      -0.42868680  T        0
O        1.84499629       9.71932810      -0.99334850  T        0
O        2.03590359      -1.21487055       4.01962522  T        0
O        3.59186522      -1.16166839       6.11672420  T        0
O        4.61423829      -1.60906995       3.56845732  T        0
O        4.56667035      -2.80782895       8.04787514  T        0
O        6.04190912      -0.92553490       6.72293050  T        0
O        4.16964227      -0.26227962       8.62507870  T        0
Si       3.54442165      -0.79039076       4.51850552  T        0
Si       4.58638337      -1.28746002       7.41346152  T        0
O       -0.02443484      11.40963667       2.62526113  T        0
O       -4.50670217       7.26429252       5.26558369  T        0
O       -4.35816895       2.60225468       5.22106313  T        0
O       -1.57276008      11.10882520       0.61763760  T        0
O       -2.67766698      11.65030026       3.07598701  T        0
O       -1.69357699       0.75025061       2.98187752  T        0
O       -1.59529440       9.25474756       2.68636375  T        0
O       -4.77337787       2.81189945       2.47492065  T        0
O       -4.76611304       7.12227030       2.50668906  T        0
O       -1.84185033       2.28097614       0.78366673  T        0
O       -2.00454563       7.58813985       0.79877571  T        0
O       -2.38133170       3.20931488       3.33688298  T        0
O       -2.45331783       6.86835633       3.49039665  T        0
O       -4.23790048       4.94410140       4.08680778  T        0
Si      -1.50692586      10.83438761       2.23822317  T        0
Si      -1.43466557       2.25973291       2.38501685  T        0
Si      -1.54997906       7.66502490       2.37157377  T        0
Si      -3.95524754       3.34567736       3.80511393  T        0
Si      -4.02537476       6.54540794       3.86214854  T        0
H       10.95532307       8.85008497       9.12727255  F        0
H       10.94686465      11.30097846       4.04088346  F        0
H        8.32487049       1.96348467       8.80281458  F        0
H        2.20758188      13.00694286       0.83020008  F        0
H        6.01931354       8.91222751      13.59787507  F        0
H        6.45001595      11.67065412      10.93294989  F        0
H        5.99284639       0.93401564      11.03719697  F        0
H        5.69664664       1.68513527       1.05659762  F        0
H        4.03182275      12.92715973       8.82439874  F        0
H        2.35337064       1.61243811       0.82192755  F        0
H        8.21123678      12.90527891       8.50458507  F        0
H        1.92726146       1.06764952      10.59110356  F        0
H        1.92726146       8.79770260      10.59110356  F        0
H        8.57917594      -0.10444883       4.04180490  F        0
H        5.53537813      12.95496052       1.09262639  F        0
H       11.09748793       3.17088023       4.02620164  F        0
H       11.09748793       6.69447189       4.02620164  F        0
H        6.58577874       9.14969547      -1.35751146  F        0
H        1.54448592       9.14594745      -1.70877228  F        0
H        1.81269882      -1.43617684       3.09859994  F        0
H        5.52981240      -1.34062802       3.37578188  F        0
H        4.03182274      -3.06210338       8.82439872  F        0
H        6.92226376      -0.94135423       7.12331841  F        0
H       -4.35421061       8.18021682       5.56988654  F        0
H       -4.35421061       1.68513522       5.56988652  F        0
H       -2.15644976      10.75416907      -0.07046469  F        0
H       -3.49783775      11.30937631       3.49139018  F        0
H       -1.47168132      -0.10444883       2.58467926  F        0
H       -5.70518556       2.56164176       2.37811508  F        0
H       -5.70518557       7.30371036       2.37811510  F        0
H       -2.04192549       3.05661076       0.22907734  F        0
H       -2.04192548       6.80874135       0.22907734  F        0
Fe       0.48299741       6.30636729       4.47647606  T        0
Fe       2.61330152       4.96440067       6.25439623  T        1
O        0.84172070       5.26525202       5.90419091  T        2
