142
Lattice="20.102 0.0 0.0 0.0 19.731 0.0 0.0 0.0 13.253" Properties=species:S:1:pos:R:3:move_mask:L:1:tags:I:1 i=77 E=-3472.0240129048 regions="_JSON [\"Active\"]" n_terminators=28 energy=-989.0596603181866 pbc="F F F"
O       10.07958321       8.68436966       9.44801711  T        0
O       10.05721603      11.09464152       4.15183714  T        0
O        2.33187968      10.58655555       3.41168944  T        0
O        7.57743876       8.76915979      10.37982622  T        0
O       12.15683257      11.08866734       2.62135766  T        0
O        8.25369422       2.89881321       8.55105611  T        0
O        2.18601402      12.54545846       1.68601175  T        0
O        8.19571665       7.26780684       8.23562642  T        0
O       12.16849178      12.53787839       4.89638158  T        0
O        1.50489944       9.99926529       0.94282548  T        0
O        8.24988527       9.94104304       8.03652398  T        0
O       12.24431718       9.87426770       5.04475727  T        0
O        3.59460825      11.06210511       6.01687011  T        0
O        6.20692981       8.58324708      12.68900762  T        0
O        4.05233864       8.56135545       4.82458406  T        0
O        5.96556934      10.78306297      11.09493459  T        0
O        3.47069160       0.69831122       3.79298337  T        0
O        5.33030413      10.46646722       3.73084455  T        0
O        4.95922908       8.45165829      10.29799579  T        0
O        6.49796164       2.17410429       1.29138402  T        0
O        3.92279462      12.42109893       8.28290591  T        0
O        5.98262400       7.18715327       1.16685997  T        0
O        5.85808103      10.79207162       7.37314757  T        0
O        3.88867695       8.76160701       0.82665674  T        0
O       14.33213060       9.16832466       6.59209014  T        0
O        3.65852436       9.77329516       8.38059492  T        0
O        6.26587683       9.87976629       1.32238494  T        0
O        2.00108913       2.52177023       0.89035961  T        0
O        7.82769636      12.58364754       7.75775995  T        0
O        1.67642981       7.31796720       1.02408541  T        0
O       12.73707915       7.30976334       5.49854690  T        0
O       12.63636131       2.52385591       5.53808625  T        0
O        7.82892898      11.01060016       5.63550951  T        0
O       11.89958467       8.92336520       7.51425169  T        0
O        7.66559148      11.44893842       2.99562886  T        0
O        2.28347494       8.11393263      10.02048259  T        0
O       12.57648825       8.45878665      10.12389209  T        0
O        8.21899315       9.07639300       3.94342765  T        0
O        9.16515532       0.67173555       3.99459808  T        0
O       11.60748908      10.85853050       9.33912010  T        0
O        4.10391560       1.77941107       8.17672060  T        0
O        5.39036318      12.41081473       1.88754192  T        0
O        3.70822990       7.09223643       8.26933448  T        0
O        0.05638877       6.91624097       3.14305901  T        0
O       10.05906438      13.06719874       9.08973169  T        0
O        0.20916667       2.58017125       2.99881077  T        0
O       10.31725263       3.01309890       4.22471679  T        0
O       10.35175821       6.92805862       4.41327108  T        0
O        2.66015669       6.63824595       3.40662020  T        0
O        7.78160168      12.63031960      10.40713814  T        0
O        2.69152120       3.17839545       3.43614987  T        0
O       12.43326348       2.81941716       2.80056493  T        0
O       12.43404669       7.03117473       2.81748714  T        0
O        8.03818308      14.90779529       9.11564322  T        0
O        1.31441701       4.84659670       1.93234364  T        0
O       12.17630657       4.91558118       4.51560909  T        0
O        3.76745235       6.10091294       5.74659431  T        0
O        6.62134557      12.81466670      12.74385986  T        0
O        3.76193567       2.56734786       5.78529812  T        0
O        5.36791799       6.76517754       3.69260868  T        0
O        5.18866076      13.26352640      10.50294224  T        0
O        5.27340310       2.64524661       3.64103418  T        0
O        3.97739282       4.45247929       7.73914288  T        0
O        5.92293061       6.25317458       7.32687308  T        0
O        6.10661839       3.13967501       6.92519094  T        0
O       14.18966751      13.87320252       6.15012418  T        0
O        8.13168198       4.92288561       6.88326527  T        0
O       11.77848726      14.89363110       6.05961212  T        0
O        7.60917813       7.27971790       5.62467656  T        0
O        8.39134225       2.40071225       5.91444005  T        0
O       12.20280194      12.64582511       7.52676822  T        0
O        7.88988200       6.50896764       2.92774418  T        0
O        2.63264922      12.84266252      10.62601846  T        0
O        7.85966663       3.02517368       3.37383711  T        0
O       12.37558004      13.32824661      10.14745784  T        0
O        3.55011985      14.91369782       9.11808492  T        0
O        6.11457690       4.68332938       2.15623725  T        0
Si       1.47301594      11.13152628       2.15176625  T        0
Si       8.50426975       8.66604629       9.03495824  T        0
Si      11.68920908      11.14261075       4.19296194  T        0
Al       3.66626701      10.29931457       4.46582487  T        0
Si       6.17489558       9.16090764      11.14435537  T        0
Si       4.23114291      11.02526767       7.48960485  T        0
Si       5.49356098       8.63363919       0.57887718  T        0
Si       7.44227673      11.09646815       7.21952978  T        0
Si       2.31356654       8.69212975       0.39822951  T        0
Si      12.78059601       8.80484018       6.15416042  T        0
Si       8.50071969      10.67777808       4.18033216  T        0
Si      11.57153023       9.24180015       9.08807075  T        0
Si       6.15820107      11.08001813       2.44145331  T        0
Si       3.69896769       8.39542637       9.24799567  T        0
Si       1.41758401       6.42193706       2.35867094  T        0
Si       8.45402452      13.32142690       9.08637711  T        0
Si       1.53173234       3.26249332       2.29415964  T        0
Si      11.90929855       3.31831021       4.28135227  T        0
Si      11.90728382       6.52275742       4.30332083  T        0
Si       3.87464616       6.99160885       4.39769726  T        0
Si       6.37132542      12.36537777      11.18232802  T        0
Si       3.79706129       2.26416509       4.19219305  T        0
Si       4.33138473       5.98385817       7.28329017  T        0
Si       4.50394009       3.00495411       7.16565982  T        0
Si       7.49771588       6.42883141       7.02628680  T        0
Si       7.71878575       3.34153234       7.05992708  T        0
Si      12.59066462      13.46712317       6.17023567  T        0
Al       8.71832556       7.35981960       4.18859121  T        0
Si       8.90118753       2.25408001       4.36518447  T        0
Si      11.56132075      12.45420149       9.01692177  T        0
Si       6.38539952       6.26079298       2.45024772  T        0
Si       3.82546359      13.36767077       9.60882146  T        0
Si       6.43113480       3.14239445       2.61510452  T        0
O        5.78913769       8.70585938      -1.03072123  T        0
O        2.21006857       8.62273650      -1.23695694  T        0
O       -0.11671420      11.46022266       2.49295727  T        0
H       13.03074804      10.85204106       2.26762503  F        0
H        8.32487049       1.96348467       8.80281458  F        0
H        2.20758188      13.00694286       0.83020008  F        0
H        6.01931354       8.91222751      13.59787507  F        0
H        3.45924363      -0.04624542       4.41174334  F        0
H        5.69664664       1.68513527       1.05659762  F        0
H       15.03932990       8.88569483       5.99268334  F        0
H        2.35337064       1.61243811       0.82192755  F        0
H       12.40451338       1.61243810       5.80455660  F        0
H        1.92726146       8.79770260      10.59110356  F        0
H       13.54926599       8.42132791      10.11787432  F        0
H        8.57917594      -0.10444883       4.04180490  F        0
H        4.22937586       1.85859719       9.12987557  F        0
H        5.53537813      12.95496052       1.09262639  F        0
H       -0.70903753       7.30425969       2.68512250  F        0
H       -0.70903753       2.56109242       2.68512249  F        0
H       13.35632229       2.80449888       2.51220488  F        0
H       13.35632228       7.06085325       2.51220488  F        0
H        8.48702655      15.71151028       8.80063176  F        0
H        5.86807409      12.98161584      13.33116226  F        0
H       14.91456245      13.24933472       6.30897701  F        0
H       12.17714149      15.71306863       6.40017283  F        0
H        1.73086689      12.60761804      10.35624453  F        0
H       13.32025657      13.20375310      10.31771692  F        0
H        4.05997682      15.72757570       9.28699687  F        0
H        6.58577874       9.14969547      -1.35751146  F        0
H        1.54448592       9.14594745      -1.70877228  F        0
H       -0.90389482      10.88061926       2.50078840  F        0
Fe       6.20899078       8.67832857       4.63076727  T        1
