141
Lattice="20.102 0.0 0.0 0.0 19.731 0.0 0.0 0.0 13.253" Properties=species:S:1:pos:R:3:move_mask:L:1:tags:I:1 i=77 E=-3472.0240129048 regions="_JSON [\"Active\"]" n_terminators=34 energy=-946.7190253799245 pbc="F F F"
O        9.93174815       8.35744002       9.17468039  T        0
O        7.63744955       8.53653874      10.52386829  T        0
O       17.96598688       8.50967422       9.23576028  T        0
O        7.68948143       7.04478458       8.36183660  T        0
O       12.25993073      16.93023504       4.52303956  T        0
O       11.90831580      12.75025659       4.71451601  T        0
O        7.79701216       9.75498922       8.25345364  T        0
O        6.64251670       8.75525581      12.87388087  T        0
O       16.61063016       8.60944362       7.03667992  T        0
O        6.07328806      19.07648091      10.91132684  T        0
O        6.01831711      10.66635594      11.01323513  T        0
O       16.27567815      10.61771837       8.83878754  T        0
O       16.91326706      18.86555604       8.73448080  T        0
O        4.94261640       8.27211196      10.84044774  T        0
O       15.25627930       8.23834138       9.34504569  T        0
O       13.88846869      17.23019347      11.93264649  T        0
O       14.25156802      12.25172993      11.99891107  T        0
O        5.86365663      10.91431549       6.70314160  T        0
O        5.77798658      19.15900510       6.73765650  T        0
O       16.18346631      18.21706270      12.74965171  T        0
O       16.10462847      10.61393172      13.15570293  T        0
O       14.33526505      19.87330822      11.60213906  T        0
O       14.30703711       9.71110720      11.29025504  T        0
O        8.01892021      12.30207162       7.58445856  T        0
O        7.74907841      17.40522445       7.39707294  T        0
O        8.31997074      10.24937904       5.80511219  T        0
O        8.19571682      19.52024925       5.67998989  T        0
O       11.53551858       8.64128397       7.16948697  T        0
O       12.60423890       8.38616098       9.67250149  T        0
O       11.31230814      10.59685279       9.05956017  T        0
O       11.49231167      18.99167380       8.99400713  T        0
O       16.21923406      17.03811568       4.48919910  T        0
O       13.98833232       7.00253760      11.40802552  T        0
O       16.34172931      12.11689300       4.88298866  T        0
O        9.99273397      16.76788854       9.16265742  T        0
O        9.99719453      12.90416330       9.38745022  T        0
O        7.21771558      16.80584779      10.21093086  T        0
O        7.44027797      12.69359325      10.17275822  T        0
O       17.80199985      12.45631090       9.85463207  T        0
O       18.13795853      16.56176752       9.41262585  T        0
O        8.40695863      14.75000556       8.78230314  T        0
O        6.29854519      17.25847432      12.74961480  T        0
O        6.52834446      12.78375790      12.64433886  T        0
O       16.58072252      12.84015534       7.39864858  T        0
O       16.76534542      16.75211086       7.12278304  T        0
O        4.55013579      16.86536789      10.76761648  T        0
O        4.77469664      13.04988985      10.70024082  T        0
O       15.15683361      12.94055221       9.57869047  T        0
O       15.50015653      16.74204165       9.48120791  T        0
O       15.87206597      14.70345600       5.63412849  T        0
O       14.13934257      12.76547860       6.26680502  T        0
O       14.24353338      16.74194399       6.32462350  T        0
O       12.41972878      14.82942661       6.15224271  T        0
O       11.76426410      12.59688164       7.40501406  T        0
O       11.71060661      17.20673734       7.09896084  T        0
O       12.53519899      12.77984819       9.98260576  T        0
O       12.56256048      16.58585143       9.54751598  T        0
O       13.92571253      14.74166336      11.09551362  T        0
Si       8.29900492       8.40985017       9.04113008  T        0
Si       6.30862550       9.07471116      11.30450558  T        0
Si      16.51814624       9.00817087       8.62919050  T        0
Si      14.58308427      18.59420923      12.56600135  T        0
Si      14.58177561      10.72525732      12.52828855  T        0
Si       7.46988621      10.82013208       7.08177480  T        0
Si       7.40204060      18.94322633       7.01105309  T        0
Si      11.38199931       8.98730633       8.77211024  T        0
Si      14.04880874       8.33335141      10.44680023  T        0
Al       8.21778478      16.54340927       8.82416183  T        0
Si       8.38464695      13.13858178       8.93341058  T        0
Si       6.06225181      17.45719574      11.12992689  T        0
Si       6.17248793      12.28506423      11.12256333  T        0
Si      16.47104581      12.22716981       8.91174690  T        0
Si      16.80927644      17.23687084       8.68924403  T        0
Si      15.72777820      13.12471744       6.03028072  T        0
Si      15.77578204      16.31774272       5.89766484  T        0
Si      12.57809351      13.22336334       6.13636940  T        0
Si      12.66604907      16.42680858       6.03510163  T        0
Si      11.43756606      12.19255013       8.94170995  T        0
Si      11.44510256      17.40168556       8.70810236  T        0
Si      13.97508346      13.15495653      10.66808438  T        0
Al      14.10069694      16.36902106      10.32787960  T        0
O       14.02113178      20.72728540      15.96522095  T        0
O       10.06773329      21.20942332       9.20812324  T        0
O        7.74496464      21.13752718      10.53608253  T        0
O       17.88624397      21.31466960       9.27773613  T        0
O        7.93597786      22.66261007       8.40107794  T        0
O        7.93005568      19.93962118       8.19519970  T        0
O        6.59677484      20.95782917      12.86193428  T        0
O       16.65282467      20.95877268       7.01593285  T        0
O        5.04685122      21.48302501      10.70979337  T        0
O       15.21009133      20.83225997       9.28977271  T        0
O       12.01027422      21.13103675       7.35925151  T        0
O       12.65103719      21.15777513       9.94728657  T        0
O       14.59936546      22.53162452      11.22986621  T        0
Si       8.42725174      21.23531118       9.05303400  T        0
Si       6.35985396      20.64243592      11.26573719  T        0
Si      16.65042272      20.46884720       8.58756807  T        0
Si      11.54526858      20.61577968       8.85494944  T        0
Si      14.18304076      21.10314480      10.52400676  T        0
O       12.10034335      18.71952993      15.93686777  T        0
O       13.84971307      18.89518004      13.98891091  T        0
O       13.52855169      10.26393275      13.69579279  T        0
O       14.62812777      18.21783184      16.50449105  T        0
Si      13.64527163      19.16305324      15.58753960  T        0
H       18.28958667       8.42947104      10.15436836  F        0
H        7.84356088       6.72376138       7.45668423  F        0
H       11.77741499      17.76721957       4.45015374  F        0
H       11.77741500      11.82883679       4.45015372  F        0
H        6.01931354       8.91222751      13.59787507  F        0
H       16.07044731       8.91222497       6.28158540  F        0
H        4.52133035       8.52501985      10.00226603  F        0
H        5.06295559      10.84500939       7.26028495  F        0
H        5.06295559      18.75104696       7.26028496  F        0
H       16.97340650      18.78964577      12.75613404  F        0
H       16.97340651      10.80641058      12.75613404  F        0
H        8.50665683      10.58475679       4.91774357  F        0
H        8.50665683      19.01129957       4.91774358  F        0
H       12.20788617       8.97653229       6.55602501  F        0
H       15.87290964      17.87210703       4.12309272  F        0
H       14.56690736       6.77574372      12.16034191  F        0
H       15.87290964      11.72394929       4.12309273  F        0
H       18.05303808      13.25020103      10.35989921  F        0
H       18.05303809      16.34585533      10.35989921  F        0
H        5.86807409      16.61444052      13.33116226  F        0
H        5.86807409      12.98161584      13.33116226  F        0
H        4.26454119      16.60174699       9.87579966  F        0
H        4.26454119      12.99430937       9.87579967  F        0
H       13.65226955      21.53630200      15.57301841  F        0
H       18.28958667      21.16688107      10.15436837  F        0
H        7.84356087      22.87259074       7.45668424  F        0
H        6.01931354      20.68412461      13.59787507  F        0
H       16.07044730      20.68412712       6.28158542  F        0
H        4.52133035      21.07133226      10.00226603  F        0
H       12.20788616      20.61981982       6.55602502  F        0
H       14.56690736      22.82060840      12.16034191  F        0
H       11.86384156      18.29482316      16.78088422  F        0
H       13.51650676      10.58100877      14.61047976  F        0
H       15.58095514      18.39037197      16.50370227  F        0
Fe      12.44304362      15.77821311      12.25388069  T        0
Fe      10.13070276      14.99244783      10.27431502  T        1
O       10.79329513      15.10473290      11.99897147  T        2
