133
Lattice="20.102 0.0 0.0 0.0 19.731 0.0 0.0 0.0 13.253" Properties=species:S:1:pos:R:3:move_mask:L:1:tags:I:1 i=77 E=-3472.0240129048 regions="_JSON [\"Active\"]" n_terminators=32 energy=-889.8477921667185 pbc="F F F"
O       10.10924988       8.36212059       9.31635090  T        0
O        9.93754817      18.83434247       4.06628658  T        0
O       10.03335303      10.68672150       3.66314624  T        0
O        2.20932386      11.36402922       3.98287261  T        0
O        7.94915024       8.54126470      10.74772724  T        0
O       12.10157641      18.56392016       2.51361862  T        0
O       12.51384654      11.44915137       2.83412016  T        0
O        7.87990399       7.13257915       8.45568080  T        0
O       11.98489371      17.43005423       4.95943275  T        0
O       11.44989599      12.31589812       5.09606459  T        0
O        8.08453471       9.78139633       8.34301667  T        0
O       12.30063068      20.09769350       4.62197614  T        0
O       12.25879893       9.75433572       4.89724422  T        0
O        3.51230485      10.76583985       6.14048542  T        0
O        3.05822340       8.86128800       4.20163085  T        0
O       17.02473537      10.65025349       9.17465823  T        0
O       17.06998700      18.95805775       9.14329182  T        0
O        4.88220145      10.81184996       3.83184912  T        0
O        3.63146508      12.06046947       8.59052116  T        0
O       14.24377835      17.09539639      12.05073841  T        0
O       14.26911514      12.50620774      12.06851497  T        0
O        5.81986618      11.18532145       7.31665251  T        0
O        5.87104161      19.14801528       7.65038291  T        0
O       14.24383316       8.84973256       6.54365825  T        0
O        3.97702910       9.38902793       8.26778780  T        0
O        5.66490482      10.16934772       1.29353414  T        0
O        8.27944876      12.57312285       7.83696494  T        0
O        7.86217693      17.38099841       8.12484613  T        0
O       12.40131954       7.17164368       5.41366583  T        0
O        8.35573274      10.94620085       5.70393385  T        0
O        7.88816657      18.66663164       5.84745035  T        0
O       11.82612709       8.89632129       7.39113417  T        0
O        7.41629878      11.08353277       3.17891598  T        0
O        7.51391483      18.44999318       3.18322507  T        0
O       12.59484063       8.31221886       9.97283410  T        0
O        8.28509039       8.76157996       4.05351626  T        0
O       11.46969737      10.69294244       9.28520398  T        0
O       12.07150665      19.03603008       9.24112999  T        0
O        5.58138259      12.68616255       2.02955149  T        0
O       15.96939420      16.99346650       4.53888578  T        0
O       16.14206907      12.55017806       4.57188624  T        0
O       10.05244462      17.20602548       9.65565765  T        0
O        9.91979683      12.80990467       9.89256510  T        0
O       10.12947404       6.75827604       4.04591364  T        0
O        7.69787682      16.72391366      10.75232595  T        0
O        7.24021952      13.36967008      10.26384848  T        0
O       17.75989630      13.18321839       9.43564991  T        0
O       12.40329799       7.06468848       2.72610769  T        0
O       17.86296122      16.46088131       9.41310025  T        0
O        8.79333799      15.01078003       8.88431314  T        0
O       12.07476911       4.82109107       4.13745811  T        0
O       16.48823099      12.50944388       7.23946479  T        0
O       16.53220128      17.10069056       7.21865977  T        0
O       15.11919509      12.53278126       9.51222011  T        0
O       15.21311491      17.02944102       9.53040996  T        0
O       15.89976159      14.79770082       5.95201623  T        0
O        5.92737685       5.85727785       6.99697821  T        0
O       14.04985558      12.90150584       6.28247266  T        0
O       14.07062076      16.71169716       6.47262525  T        0
O        8.24993383       4.73693549       7.41584988  T        0
O       12.00612478      14.99326078       6.07995453  T        0
O        8.12958931       6.88919071       5.82430930  T        0
O       11.31721262      12.84732509       7.64839982  T        0
O       11.52000091      16.98847407       7.51580569  T        0
O        7.69479210       6.30577524       3.19304520  T        0
O       12.57023293      13.00429305      10.00818109  T        0
O       12.64242318      16.57913476       9.90960873  T        0
O       14.36723954      14.79100742      10.78479929  T        0
Si       8.48206131       8.47570648       9.18657738  T        0
Si      11.56261402      18.73539595       4.05446507  T        0
Si      11.57806457      11.01096662       4.10650316  T        0
Si       3.44278109      10.43738946       4.54518880  T        0
Si       4.26700430      10.88416573       7.59834241  T        0
Al       7.50911184      11.01357976       7.31239412  T        0
Si       7.47100173      18.82312235       7.41028436  T        0
Si      12.68522386       8.65798792       6.03889836  T        0
Si       8.50168181      10.36607623       4.15719014  T        0
Si       8.36743457      19.19926316       4.37003723  T        0
Si      11.52621080       9.07727208       8.99223458  T        0
Si       5.88064089      11.17149563       2.58940951  T        0
Si       8.55670141      16.59478393       9.37084513  T        0
Si       8.52526578      13.37979432       9.24408766  T        0
Si      11.73301806       6.42824424       4.09995666  T        0
Si      16.58366959      12.20690861       8.84161858  T        0
Si      16.65090634      17.39531330       8.83009030  T        0
Si      15.62154527      13.17295127       6.01088420  T        0
Si      15.64501440      16.40034472       6.03621606  T        0
Si       7.53044343       6.19577554       7.17981378  T        0
Al      12.39319518      13.26274378       6.26707647  T        0
Si      12.49551129      16.54399338       6.20713805  T        0
Si       8.56985021       7.17205558       4.29102089  T        0
Si      11.33899330      12.30929655       9.21473734  T        0
Si      11.56856276      17.48281647       9.11578205  T        0
Si      14.09007529      13.19354149      10.58530906  T        0
Si      14.14085131      16.38840746      10.57041751  T        0
O        8.42797241      20.00505395       8.05599930  T        0
O        8.13928860      20.82967435       4.43707379  T        0
H        1.81269882      11.30123319       3.09859993  F        0
H        7.07153747       8.87866318      10.98534327  F        0
H       13.03074803      18.74401529       2.26762503  F        0
H       13.03074804      10.85204106       2.26762503  F        0
H       12.34310542      20.30287261       5.56688324  F        0
H        3.60112680       8.06005012       4.30646574  F        0
H       16.64303307       9.81912404       8.84117322  F        0
H       16.64304187      19.77694965       8.84122497  F        0
H        4.03182275      12.92715973       8.82439874  F        0
H       14.40563884      18.04556895      12.19637069  F        0
H       14.40563885      11.55048737      12.19637067  F        0
H        5.06295559      18.75104696       7.26028496  F        0
H       15.03932990       8.88569483       5.99268334  F        0
H        4.11249823       9.08086468       9.18193973  F        0
H        5.72719027       9.20254625       1.33756862  F        0
H        6.55301950      18.28668004       3.13509397  F        0
H       13.54926599       8.42132791      10.11787432  F        0
H       11.52310955      19.83515307       9.21116341  F        0
H        5.53537813      12.95496052       1.09262639  F        0
H       15.87290964      17.87210703       4.12309272  F        0
H       15.87290964      11.72394929       4.12309273  F        0
H        6.74596320      16.92620537      10.74076342  F        0
H        6.74596321      12.66985099      10.74076342  F        0
H       18.05303808      13.25020103      10.35989921  F        0
H       13.35632228       7.06085325       2.51220488  F        0
H       18.05303809      16.34585533      10.35989921  F        0
H       11.61525895       4.01919395       4.45233654  F        0
H        5.18772305       6.48136951       6.94399129  F        0
H        7.92514400       4.01763560       6.85279547  F        0
H        6.78202892       6.52695113       2.93525138  F        0
H        8.32625906      20.60985804       8.81306681  F        0
H        8.66651872      21.47399316       3.93953912  F        0
Fe       9.61628700      12.56124250       6.17603030  T        0
Fe       9.98414874      15.42084564       6.85167138  T        1
O        9.25338923      14.30443193       5.28873169  T        2
O        8.31122293      15.20233678       5.94484165  T        3
