139
Lattice="20.102 0.0 0.0 0.0 19.731 0.0 0.0 0.0 13.253" Properties=species:S:1:pos:R:3:move_mask:L:1:tags:I:1 i=77 E=-3472.0240129048 regions="_JSON [\"Active\"]" n_terminators=32 energy=-944.7671984026069 pbc="F F F"
O       10.22016933      18.35041142       3.98985579  T        0
O        2.41442756      18.20560789       3.85483888  T        0
O       12.68172706      18.07620252       2.87985895  T        0
O       12.22358320      17.14735635       5.24916712  T        0
O       11.82859666      12.77403748       4.65691923  T        0
O        8.49318604       9.36857287       7.93000776  T        0
O       12.27378195      19.82137734       4.89483278  T        0
O        3.74546129      10.13046235       6.09451238  T        0
O        3.75605522      19.06243634       5.92747385  T        0
O        6.52193342      18.95621790      10.99589086  T        0
O        6.97318648      10.65857077      10.76068714  T        0
O        5.06384488      18.69808115       3.63283933  T        0
O        4.14844505      12.02483699       8.01005871  T        0
O        4.01605419      17.35298023       7.97715895  T        0
O        6.24618339      10.68487161       6.92461656  T        0
O        6.08016527      18.81936882       7.13208036  T        0
O        4.73081523       9.35699438       8.48480640  T        0
O        4.04440305      19.97062454       8.40568069  T        0
O        8.16291255      12.05808258       8.12119359  T        0
O        8.21716288      17.35489020       7.72636898  T        0
O        8.70124626      10.90753719       5.81610920  T        0
O        8.26569046      19.10112526       5.68583412  T        0
O        7.66767876      18.56023037       3.16070297  T        0
O        1.46126367      18.99060630      10.66000513  T        0
O        1.74662151      10.65164146      10.40044586  T        0
O       11.91920460      10.61478410       9.47354503  T        0
O       11.43435904      19.11059262       9.28877868  T        0
O        6.09136777      16.90425473       1.84973226  T        0
O       10.13044609      16.83550670       9.85382101  T        0
O       10.39205550      12.86056327       9.35771271  T        0
O        7.18696118      16.46299324      10.24859156  T        0
O        8.02015355      12.96172277      10.65754837  T        0
O        8.35486256      14.64562403       8.78835998  T        0
O        6.23734557      16.98582069      12.71997216  T        0
O        6.36009359      12.46765401      12.75167377  T        0
O        4.66831726      17.06842695      10.56885062  T        0
O        5.45592381      12.96070017      10.29514817  T        0
O       14.18247263      12.86678529       5.80421525  T        0
O       14.22978726      16.48597085       6.97651037  T        0
O       12.27269697      14.74226874       6.35000533  T        0
O        1.45348233      16.96887881      12.35177575  T        0
O        1.40250025      12.39364389      12.48679281  T        0
O       11.95167218      12.22773872       7.25248277  T        0
O       11.82684351      16.87954438       7.86041357  T        0
O        2.20575074      16.56864336       9.80689621  T        0
O        2.36546427      13.10925806      10.10994417  T        0
O       13.08307050      13.02885806       9.39854905  T        0
O       12.77609182      17.19041681      10.39525258  T        0
O        4.29869758      14.92623201       9.06058939  T        0
Si      11.83855012      18.38032298       4.26120030  T        0
Si       3.65479114      19.18268189       4.30521451  T        0
Si       4.66149363      10.61102079       7.39289972  T        0
Si       4.48283340      18.80210128       7.36367432  T        0
Si       7.84974249      10.71850976       7.21302499  T        0
Si       7.71169872      18.77965575       7.18668462  T        0
Si       8.81508025      19.16308145       4.16030733  T        0
Si       6.18975246      18.42228251       2.47324885  T        0
Al       8.63564394      16.41317490       9.11382229  T        0
Si       8.79676897      13.10452231       9.18622465  T        0
Si       6.16350903      17.39755286      11.14598009  T        0
Si       6.64737163      12.20730337      11.16599657  T        0
Si      12.58004098      13.17306504       6.05721134  T        0
Si      12.63521447      16.31655900       6.58410407  T        0
Si       1.18714110      17.39775785      10.80234665  T        0
Si       1.26715961      12.17725080      10.85195323  T        0
Si      11.79947127      12.14220654       8.87227334  T        0
Si      11.52917187      17.48395301       9.35578443  T        0
Si       3.76033557      16.47684947       9.32925777  T        0
Al       3.90216261      13.14144932       9.31864565  T        0
O       10.13192321      21.44522002       9.24304879  T        0
O        0.04309578      21.32626851      10.48109911  T        0
O        7.84957561      21.17760798      10.55075713  T        0
O        7.81993318      22.65033449       8.40138500  T        0
O        8.20047860      19.99266157       8.15918619  T        0
O        6.55763418      20.96996157      12.83541884  T        0
O        3.33478803      20.73580535       3.82258068  T        0
O        5.19367459      21.18747233      10.49054218  T        0
O       14.24762778      20.72686402       6.54822017  T        0
O        5.99318584      19.46971448       1.21010074  T        0
O       12.64300515      22.44398002       5.27250722  T        0
O        1.43697166      20.80292369      12.69101193  T        0
O       11.78978795      20.84881752       7.31080332  T        0
O        2.61008893      21.30036355      10.26207530  T        0
O       12.67373843      21.48301969       9.82198914  T        0
O        9.22952054      20.71273041       3.74564918  T        0
O        3.99770725      22.66240556       8.52641048  T        0
Si       8.52005763      21.30647146       9.06147649  T        0
Si       6.50259637      20.57768060      11.23781337  T        0
Si      12.71879155      20.95660773       5.98451904  T        0
Si       1.38504239      20.57803122      11.05125330  T        0
Si      11.54893638      20.68975249       8.92563283  T        0
Si       3.98333770      21.26847032       9.39624620  T        0
O        1.69901325      12.74917474      15.13898780  T        0
O        1.49323994      16.91046379      15.03103715  T        0
O        5.81720364      12.62612454      15.39539108  T        0
O        5.86827367      16.96341492      15.40034299  T        0
O        5.55139783      14.76307790      13.96241897  T        0
O        3.79203078      16.79577033      13.66895062  T        0
O        3.84853482      12.75064522      13.49027933  T        0
O        2.06674951      14.75595426      13.57984566  T        0
Si       5.34843895      16.38077451      13.95346963  T        0
Si       5.38282208      13.14218042      13.90164314  T        0
Si       2.21101389      16.36502785      13.65705497  T        0
Si       2.25926336      13.14897742      13.65109929  T        0
O       -0.31015369      12.43141543      10.40025638  T        0
O       -0.36197531      17.16001272      10.31811236  T        0
H        1.81269882      18.29482316       3.09859994  F        0
H       13.03074803      18.74401529       2.26762503  F        0
H       11.77741500      11.82883679       4.45015372  F        0
H        8.32625906       8.98649408       8.81306681  F        0
H        3.46536401      10.58100877       5.26900439  F        0
H        6.59189033       9.81912404      11.03827922  F        0
H        4.11249823       9.08086468       9.18193973  F        0
H        8.50665683      10.58475679       4.91774357  F        0
H        1.47196499       9.76092419      10.66834598  F        0
H       11.52310774       9.76092419       9.21110646  F        0
H        5.53537813      16.64109584       1.09262638  F        0
H       14.91456245      13.24933472       6.30897701  F        0
H       14.91456244      16.34672163       6.30897701  F        0
H       13.32025657      13.20375310      10.31771692  F        0
H       13.32025658      16.39230324      10.31771692  F        0
H       -0.89571882      21.16662326      10.66739019  F        0
H        7.84356087      22.87259074       7.45668424  F        0
H        6.01931354      20.68412461      13.59787507  F        0
H        3.60112680      21.53630199       4.30646574  F        0
H       15.03932989      20.71065726       5.99268335  F        0
H        5.72719026      20.39380587       1.33756863  F        0
H       11.89104871      22.77092679       4.74838323  F        0
H        2.15673526      20.61981695      13.32343299  F        0
H       13.54926599      21.17502420      10.11787433  F        0
H        8.66651872      21.47399316       3.93953912  F        0
H        4.51576461      22.82060840       7.71911054  F        0
H        1.72627225      11.82883678      15.42933042  F        0
H        1.72627225      17.76721957      15.42933043  F        0
H        5.82176689      11.72394931      15.75639142  F        0
H        5.82176689      17.87210706      15.75639142  F        0
H       -1.04605969      13.03623234      10.65268580  F        0
H       -1.04605969      16.55982401      10.65268579  F        0
Fe       6.34914320      14.70966430       9.62295789  T        1
