138
Lattice="24.397 0.0 0.0 0.0 24.397 0.0 0.0 0.0 24.397" Properties=species:S:1:pos:R:3:move_mask:L:1:tags:I:1 i=41 E=-6943.8331748197 regions="_JSON [\"Active\"]" n_terminators=30 energy=-942.3299825338216 pbc="F F F"
O       21.89742372      14.76425018      11.94673229  T        0
O       21.58522164      18.27566689      15.69388915  T        0
O       18.40717962      14.95527278       8.63623603  T        0
O       20.73245693       3.31280898      11.97095592  T        0
O       18.23191130       8.75778344      14.94205262  T        0
O       21.76259596      12.19122389      14.88796517  T        0
O       20.99028628      14.79559366       5.90669944  T        0
O       15.50341228      11.99495428       8.56003098  T        0
O       21.98057182      15.62658255      18.69820492  T        0
O       15.54256598       8.59359538      12.03021754  T        0
O       20.95280103       6.03683981      14.98829498  T        0
O       23.64567704      13.93840300      14.15071212  T        0
O       22.64671241       5.41912998       7.74159166  T        0
O       17.62215672      10.43791690       7.74985474  T        0
O       20.03507833      13.00949908       7.69510383  T        0
O       22.56060768      12.73985206      10.28072781  T        0
O       22.50233005      10.41929120      13.03668390  T        0
O       23.45032615      16.56620327      16.62611870  T        0
O       17.62154849       7.76872739      10.43047081  T        0
O       19.98864143       5.44593195      10.40591789  T        0
O       20.07493010       7.84677870      13.17199866  T        0
O       24.68135439      15.33701410      12.25843850  T        0
O       24.33509583      12.05301461      15.77807023  T        0
O       18.05041105      12.37108438       9.37737167  T        0
O       21.98355429      12.23846384       5.97247495  T        0
O       20.90316811      12.31276523      12.30320628  T        0
O       24.48440476      14.68718689      18.30071133  T        0
O       24.20206476      18.55941186      15.03009835  T        0
O       18.11015203       9.44564101      12.33270137  T        0
O       21.61438646       5.84064002      12.37083885  T        0
O       22.68930627      16.63824129      14.02653326  T        0
O       22.48607659       4.39648659      10.27215298  T        0
O       20.09071188      13.80150480      10.25089351  T        0
O       22.64738693      13.99473236      16.63967139  T        0
O       22.58006109      13.88921719       7.87075289  T        0
O       16.58160792      10.27916692      10.27113415  T        0
O       19.97698391      10.42722725      13.95053482  T        0
O       22.65654915       7.69566543      13.95509406  T        0
Al      23.09968159      15.28964353      13.07396526  T        0
Si      23.47354171       4.76196728       9.01223023  T        0
Si      19.13211724      13.51396466       8.97079594  T        0
Si      23.07871914      13.03415943      15.40230188  T        0
Si      21.35680862      13.48204884       6.83907839  T        0
Si      16.91961792      11.25802776       8.99759248  T        0
Si      23.54991657      13.42386788       9.09655820  T        0
Si      21.25730445      11.34677858      13.57358006  T        0
Si      23.13325746      15.27053891      17.57017440  T        0
Si      16.95011652       9.01732361      11.26633181  T        0
Si      21.32978745       6.86583454      13.61157022  T        0
Si      21.34031177      13.45845496      11.22118020  T        0
Al      23.59027489       9.07044320      13.57442478  T        0
Si      22.99775763      17.49799355      15.33802585  T        0
Si      21.20577343       4.73419108      11.25788546  T        0
Si      19.10079902       9.08826866      13.58087229  T        0
O       24.71799088       9.60825654      14.77988356  T        0
O       27.18812002      12.16965504       9.43402857  T        0
O       26.65869643       8.67706972       5.55688058  T        0
O       24.24197872       3.35367802       8.60352065  T        0
O       27.94894890       9.96850941      18.71647092  T        0
O       27.82815609      18.37430353       9.40961929  T        0
O       26.97525954       9.67327248      12.20291993  T        0
O       24.38755226      14.72009433       9.65323229  T        0
O       30.75116719       9.54157773      15.56820062  T        0
O       27.18658526       6.00884639       8.77399189  T        0
O       24.63205711      21.08613442      15.87097869  T        0
O       27.98978121      21.03283000      12.35169403  T        0
O       31.03959149      15.71080833       9.92565480  T        0
O       26.35926321      11.63145863      14.08489960  T        0
O       26.63926773      14.21271813      11.13715851  T        0
O       25.51308630       7.91061356       7.88699821  T        0
O       28.85467901      18.97230459      13.95140079  T        0
O       28.71033806      16.46463328      11.07858644  T        0
O       25.43221385      10.16627742       9.97710834  T        0
O       26.18254362      18.94476663      16.62612896  T        0
O       29.02384715      11.27539065      16.57582392  T        0
O       27.98850011      12.13310980      12.02936427  T        0
O       24.19984642       9.53031185       6.20196384  T        0
O       24.55006731       5.93324605       9.40922704  T        0
O       30.39999735      14.84943775      12.38880582  T        0
O       27.19608657      18.45101781      12.04714655  T        0
O       24.38224720       9.03789472      11.97840014  T        0
O       24.59976985      12.27103195       8.62271872  T        0
O       30.67276604      12.11720396      14.59012782  T        0
O       27.35409029      12.53745386      18.15000793  T        0
O       26.44619257      10.60175423      16.56889569  T        0
O       29.07043514      13.89588272      10.32898483  T        0
O       26.26371719      10.47374557       7.54520645  T        0
O       26.10891908      16.67257561      10.38012098  T        0
O       28.76285307      10.47193017      14.00503858  T        0
O       26.22477006       7.71463066      10.49026323  T        0
O       26.31935846      19.97520246      14.11634071  T        0
Si      25.43761917      10.92450601      15.33309010  T        0
Si      27.71780776      13.06045180      10.70616448  T        0
Si      25.67086924       9.12288308       6.79859484  T        0
Si      27.48107407      17.49389609      10.75849158  T        0
Si      27.52332547      10.95914761      13.06074411  T        0
Si      25.41784424      15.26129507      10.80778944  T        0
Si      25.83805788       6.88957909       9.12164899  T        0
Si      27.58366474      19.62446508      13.12287136  T        0
Si      29.80370698      15.25640687      10.91725746  T        0
Si      25.80524634       9.12155016      11.19492492  T        0
Si      25.33416715      19.65833679      15.40297680  T        0
Si      29.81889144      10.86033440      15.20741560  T        0
Si      25.89573274      11.31112197       8.89849839  T        0
Si      27.70192275      11.06964092      17.51431854  T        0
H       21.53675922      18.82464154      16.48557585  F        0
H       17.77044825      15.05832767       7.91114389  F        0
H       20.10951519       3.23923103      12.72546793  F        0
H       17.77044795       7.91114248      15.05833030  F        0
H       20.10952727      15.05833719       5.57209478  F        0
H       15.43760507      12.72548405       7.91113339  F        0
H       21.53675926      16.48557294      18.82464504  F        0
H       15.43760512       7.91113194      12.72548646  F        0
H       20.10952727       5.57209364      15.05833987  F        0
H       21.84183657       5.02705817       7.37003090  F        0
H       17.22544603       9.64342904       7.37003541  F        0
H       17.22544607       7.37003419       9.64343075  F        0
H       19.56839356       5.02707813       9.64345142  F        0
H       21.54217341      11.69569933       5.29990500  F        0
H       24.89948212      15.05286123      19.09678599  F        0
H       27.25697428       7.91116076       5.57209299  F        0
H       24.92409737       3.23921078       7.91116324  F        0
H       28.68420627       9.33839650      18.82464325  F        0
H       28.68420627      18.82464007       9.33839816  F        0
H       31.02328530       9.33840603      16.48559414  F        0
H       27.25697431       5.57209217       7.91116218  F        0
H       23.86979091      21.15749759      16.48550707  F        0
H       28.68421834      21.15750267      11.67127009  F        0
H       31.02328560      16.48559123       9.33840773  F        0
H       29.22533999      19.36965558      14.75328661  F        0
H       26.95189696      19.36967554      17.02670712  F        0
H       23.89425140       9.34387249       5.29995205  F        0
H       31.29548389      15.05290867      12.70105939  F        0
H       31.29548387      12.70105727      15.05291128  F        0
H       27.25156012      12.70103436      19.09683303  F        0
Fe      25.27361873      13.36704438      13.04076665  T        0
Fe      23.59103654      11.00602584      11.39412114  T        0
O       24.98051220      12.18050782      11.66619574  T        0
