136
Lattice="19.123 0.0 0.0 0.0 14.277 0.0 0.0 0.0 7.5465" Properties=species:S:1:pos:R:3:move_mask:L:1:tags:I:1 i=128 E=-2603.9155142701 regions="_JSON [\"Active\"]" n_terminators=34 energy=-900.2099124568753 pbc="F F F"
O       15.71833605       8.41219680       5.67445406  T        0
O       12.72040549       1.09288311       2.05701880  T        0
O       15.66812891       5.78115770       5.93057411  T        0
O       12.81841155      13.07766280       2.01559211  T        0
O       12.80573822      13.24137641       5.89851479  T        0
O       15.74933514       5.86134161       1.96108307  T        0
O       13.06444003       1.12785750       6.07410373  T        0
O       15.68206663       8.51526067       1.83113495  T        0
O       16.89510189      10.85550705       6.47647813  T        0
O       11.53083513       3.44852494       2.37693039  T        0
O       17.01989094       3.56039652       6.42039500  T        0
O       11.84573331      10.67506360       2.41412716  T        0
O       11.52382671      10.92468245       5.09932151  T        0
O       17.04109346       3.35150946       1.30836007  T        0
O       11.88823013       3.41728847       5.03123550  T        0
O       17.01429774      10.79970661       1.30517399  T        0
O       16.28212789      10.14376800       3.78274884  T        0
O       12.50709360       2.79685515      -0.05439422  T        0
O       16.28957539       4.20054840       3.90952600  T        0
O       12.72226665      11.32680326      -0.05685740  T        0
O       14.10012929      10.91426199       5.62846517  T        0
O       14.16466314       3.35133984       1.96631638  T        0
O       14.45243482       3.37748991       5.68469069  T        0
O       14.44561328      10.92460732       1.94109959  T        0
O       11.57398666       8.48223925       3.88859584  T        0
O       17.33456251       1.08796666      -0.19481840  T        0
O       11.57239668       5.76924453       3.75022248  T        0
O       17.30461032      13.13304674      -0.11161743  T        0
O        9.50233756      10.18374655       3.40279464  T        0
O        9.50048029       4.04156610       4.11658584  T        0
O       13.46099858       7.06140837       5.11654531  T        0
O       13.44426950       7.18093245       2.45622053  T        0
O       14.41144350       7.07025285      -0.03274541  T        0
Al      15.63419049      10.23383581       5.49465538  T        0
Si      12.74822846       2.68297754       1.56864179  T        0
Si      15.83244976       4.19551056       5.50501408  T        0
Si      12.95272993      11.50053595       1.55796490  T        0
Si      12.70189904      11.58681676       6.06548976  T        0
Al      15.70186707       4.02907961       2.17171992  T        0
Si      12.96875291       2.77867481       6.07645361  T        0
Si      15.82894836      10.12280655       2.18476531  T        0
Si      11.10200112      10.06752952       3.75218058  T        0
Si      17.58196679       2.73552427      -0.10509178  T        0
Si      11.10727430       4.17910690       3.79353138  T        0
Si      17.57200322      11.50237180      -0.08431425  T        0
Si      14.75035406       7.13557034       6.09929885  T        0
Si      14.79397017       7.15580706       1.54235221  T        0
Si      12.48434328       7.12659926       3.79644584  T        0
O       21.63378873      11.10911505       9.00974748  T        0
O       20.93011730      13.16433060       7.43555591  T        0
O       19.18510232       3.02813335       7.94622037  T        0
O       19.21393048      11.27765270       7.71712310  T        0
Si      20.83845371      11.53033858       7.61829004  T        0
O       22.41923200       8.37134360       5.75811768  T        0
O       22.49676167       5.87643737       1.95809021  T        0
O       22.94884086       8.48722498       1.86681750  T        0
O       21.52704006      10.77985079       6.30042825  T        0
O       21.33406870      10.55662705       1.27077221  T        0
O       22.40849815      10.25301431       3.79217903  T        0
O       24.21853067      10.30247069       5.83519107  T        0
O       23.79487806      11.10051069       1.59165749  T        0
O       21.03618975      13.08233560       0.26965640  T        0
O       19.18454695       3.02720307      -0.38280252  T        0
O       19.19037250      11.27484368      -0.15170871  T        0
O       25.05665363       6.83392969       2.34134393  T        0
O       24.05649090       6.91751735      -0.06801501  T        0
Si      22.64595539       9.96662014       5.40783017  T        0
Si      22.63229359      10.07508938       2.16395119  T        0
Si      20.82885261      11.47362072      -0.01894770  T        0
Si      23.61846166       7.02494206       1.53090349  T        0
O       21.59173486      11.07061152      -1.43453822  T        0
O       16.74025041       3.19245105       9.10385337  T        0
O       17.05830729      10.79031562       9.19041165  T        0
O       12.51055151       3.27163387       7.58195205  T        0
O       12.27060281      11.22998463       7.63025063  T        0
O       17.35366589       1.09780050       7.53679150  T        0
O       17.28709662      13.17073323       7.84927699  T        0
O       14.16964016       7.30727015       7.62708763  T        0
Si      17.57243400       2.72834397       7.74140597  T        0
Si      17.57675569      11.53253439       7.78612788  T        0
O       15.53259526       8.45787521      -2.03148527  T        0
O       15.52359908       5.79491728      -2.11401619  T        0
O       12.81816199      13.06607310      -2.14484462  T        0
O       12.81961177       1.20058215      -2.23004866  T        0
O       16.82322497      10.72794954      -1.32592890  T        0
O       16.77761049       3.51566872      -1.31999121  T        0
O       11.57543162      10.70795324      -2.37252319  T        0
O       11.51273478       3.52461188      -2.38709884  T        0
O       16.33997411      10.30655617      -3.84760906  T        0
O       16.19803246       3.80946968      -3.83997355  T        0
O       14.28135660      10.80295192      -2.16719735  T        0
O       14.20423394       3.50477576      -2.01238264  T        0
O       13.15582115       7.15293460      -2.30551149  T        0
Si      15.72684248      10.06140201      -2.33839693  T        0
Si      15.66852583       4.16308503      -2.32045303  T        0
Si      12.86782212      11.47336882      -1.69230190  T        0
Si      12.78717835       2.76043685      -1.67311324  T        0
Si      14.67023242       7.11473463      -1.65271418  T        0
H       13.50938118       0.51971906       2.07492992  F        0
H       13.50958039      13.75682243       2.07498241  F        0
H       13.51084140      13.75504172       5.44776650  F        0
H       13.50975252       0.52161770       5.44778410  F        0
H       16.56036088       0.51548555      -0.00076213  F        0
H       16.56020813      13.76127004      -0.00066979  F        0
H        8.59739021      10.07362933       3.76217937  F        0
H        8.59637561       4.20354031       3.76204115  F        0
H       22.00483182      10.29715766       9.41435165  F        0
H       21.68557806      13.76129914       7.54737584  F        0
H       20.08726577       2.93486642       7.54597012  F        0
H       23.07126003       7.65296290       5.84570001  F        0
H       22.48961743       4.89904760       2.07505888  F        0
H       24.76092223      11.11473374       5.84604825  F        0
H       24.75845825      11.12041654       1.68709931  F        0
H       21.68557806      13.76129914       0.00087584  F        0
H       20.08726577       2.93486642      -0.00052988  F        0
H       25.36301829       7.13882896       3.22257540  F        0
H       23.63475007       7.13509558      -0.92932085  F        0
H       22.00608000      10.28902905      -1.85963567  F        0
H       16.24121950       3.98053732       9.41400179  F        0
H       16.24088130      10.29526047       9.41338238  F        0
H       12.76321398       2.97604733       8.47995589  F        0
H       12.76333233      11.30075111       8.47967776  F        0
H       16.56036088       0.51548555       7.54573787  F        0
H       16.56020813      13.76127004       7.54583021  F        0
H       14.61405599       7.13800201       8.47661577  F        0
H       13.51084140      13.75504172      -2.09873350  F        0
H       13.50975252       0.52161770      -2.09871590  F        0
H       11.39521725      10.28762784      -3.24237523  F        0
H       11.39412799       3.98861071      -3.24188863  F        0
H       15.92569105      10.11584057      -4.70878458  F        0
H       15.92661844       4.15901570      -4.70770176  F        0
H       12.88191441       7.13773895      -3.23957932  F        0
Fe      17.31925846       5.88190592       3.31234971  T        0
Fe      17.34381009       8.47689381       4.34568232  T        1
O       18.54248922       6.86222332       4.57494067  T        2
O       18.60737192       7.43032247       3.17386226  T        3
