145
Lattice="20.102 0.0 0.0 0.0 19.731 0.0 0.0 0.0 13.253" Properties=species:S:1:pos:R:3:move_mask:L:1:tags:I:1 i=77 E=-3472.0240129048 regions="_JSON [\"Active\"]" n_terminators=28 energy=-1013.6139507026933 pbc="F F F"
O       10.20882992       8.48920088       9.68339772  T        0
O        9.89345416      11.24150301       3.56956751  T        0
O        1.98663446      11.12566019       4.03769317  T        0
O        7.66747460       8.71860860      10.43027652  T        0
O       18.11566402       8.60505871       9.21527396  T        0
O       12.43481908      11.01211372       2.82269481  T        0
O        8.29773966       7.07386893       8.41280913  T        0
O       11.80451562      12.65686123       4.84015484  T        0
O        8.54749807       9.68834085       8.03638109  T        0
O       11.55481015      10.04239848       5.21660183  T        0
O        3.32984531      10.70410820       6.23373562  T        0
O        6.65133278       8.96970257      12.85477407  T        0
O       16.77246028       9.02659783       7.01921752  T        0
O       13.45094556      10.76099883       0.39818599  T        0
O        3.39389172       8.85590781       4.29450759  T        0
O        6.39488075      10.95044896      11.00921544  T        0
O       16.70839711      10.87480840       8.95843813  T        0
O       13.70739545       8.78026458       2.24375166  T        0
O        4.71398554      11.15986171       4.02633395  T        0
O        5.02098182       8.69341587      10.71825858  T        0
O       15.38831994       8.57084529       9.22663272  T        0
O       15.08130065      11.03729831       2.53469198  T        0
O        4.05088695      12.40025730       8.14025898  T        0
O        6.09085797       7.32869341       1.29016964  T        0
O       16.05138805       7.33045095       5.11270099  T        0
O       14.01141875      12.40201396      11.96280163  T        0
O        5.79847760      10.52284574       7.22716282  T        0
O        3.88190511       8.34912214       0.27170722  T        0
O       14.30381889       9.20786628       6.02582757  T        0
O       16.22039113      11.38160549      12.98123348  T        0
O        3.68711869       9.87962128       8.72313572  T        0
O        5.39733636       9.88394686       1.85019839  T        0
O       16.41514689       9.85109069       4.52982435  T        0
O       14.70497512       9.84676561      11.40276327  T        0
O        7.93255664      12.42265805       7.76656253  T        0
O       12.16975074       7.30806101       5.48639685  T        0
O        8.38796701      10.62887038       5.64927884  T        0
O       11.71432465       9.10184300       7.60369101  T        0
O        7.25811095      11.18973862       3.24070961  T        0
O        2.47277335       8.07514960      10.23964009  T        0
O       12.84418282       8.54097004      10.01226467  T        0
O       17.62949873      11.65555233       3.01330803  T        0
O        8.59684597       8.89507378       3.67743262  T        0
O       11.50543234      10.83562421       9.57554798  T        0
O        5.31524642      12.61881782       1.97758172  T        0
O        4.36367998       7.28389335       8.56066205  T        0
O       14.78705990       7.11189610      11.27539294  T        0
O       15.73860320      12.44681380       4.69229458  T        0
O        9.93525924      12.99836662       9.45996424  T        0
O       10.16701961       6.73233747       3.79302895  T        0
O        2.31536015       6.43267124       3.82848891  T        0
O        7.44650139      13.29535872      10.25178959  T        0
O       17.78692887      13.29803940       9.42447640  T        0
O       12.65576532       6.43535564       3.00116318  T        0
O        8.39309957      14.90120409       8.28632663  T        0
O       11.70921138       4.82950633       4.96662936  T        0
O        3.74585217       6.81015567       5.99774434  T        0
O        6.55336871      13.09350594      12.65876928  T        0
O       16.35641898      12.92056908       7.25521898  T        0
O       13.54890635       6.63721395       0.59418836  T        0
O        4.98202832       6.84498506       3.65706041  T        0
O        4.78262974      13.01447373      10.64004336  T        0
O       15.12025545      12.88573138       9.59590826  T        0
O       15.31964030       6.71623680       2.61291447  T        0
O        4.22436415       4.81807269       7.78719147  T        0
O       15.87788381      14.91263583       5.46575793  T        0
O        6.20933823       6.38463942       6.85457841  T        0
O       13.89292997      13.34605161       6.39837659  T        0
O        8.42845986       4.84642022       6.93511824  T        0
O       11.67381265      14.88428465       6.31792284  T        0
O        8.47114280       7.27532069       5.78718679  T        0
O       11.63112156      12.45536435       7.46578110  T        0
O        7.57401250       6.46448845       3.37233049  T        0
O        2.20950472      13.35205759       9.94953505  T        0
O       12.52827147      13.26621008       9.88063204  T        0
O       17.89276318       6.37865731       3.30342906  T        0
O        4.04529595      14.89104760       8.79498965  T        0
O        5.88873351       4.80742873       2.11454656  T        0
O       16.05698008       4.83966174       4.45797047  T        0
O       14.21354938      14.92327755      11.13842279  T        0
Si       8.65149094       8.48414237       9.16578101  T        0
Si      11.45079358      11.24657748       4.08718334  T        0
Si       3.36509439      10.45453851       4.63193827  T        0
Si       6.40848417       9.34319838      11.27118655  T        0
Si      16.73720511       9.27617463       8.62101595  T        0
Si      13.69379828      10.38751315       1.98177336  T        0
Si       4.26052462      10.88687428       7.56565258  T        0
Si       5.43224163       8.71993670       0.71865672  T        0
Si      15.84176323       8.84383272       5.68731141  T        0
Si      14.67005313      11.01077496      12.53430706  T        0
Al       7.47159665      10.88622553       7.18676045  T        0
Al      12.63069897       8.84449602       6.06620207  T        0
Si       8.50411452      10.49282667       4.01012693  T        0
Si      11.59817232       9.23787179       9.24284507  T        0
Si       5.69892358      11.21370133       2.73494750  T        0
Si       3.90121557       8.49217543       9.54246128  T        0
Si      14.40337693       8.51700919      10.51801727  T        0
Si      16.20106107      11.23853171       3.71049319  T        0
Si       8.42039657      13.39645757       8.93705507  T        0
Si      11.68189102       6.33425796       4.31591438  T        0
Si       3.60965558       7.24967092       4.43286106  T        0
Si       6.28512036      12.57778206      11.12192180  T        0
Si      16.49262639      12.48104717       8.82010160  T        0
Si      13.81715006       7.15293121       2.13103698  T        0
Si       4.63264226       6.32790463       7.28134313  T        0
Si      15.46962696      13.40279922       5.97161270  T        0
Si       7.82808517       6.37321681       7.00767556  T        0
Si      12.27418116      13.35748850       6.24529972  T        0
Si       8.70884034       7.33131860       4.15573510  T        0
Si      11.39343362      12.39937839       9.09724219  T        0
Si       6.12995346       6.35736248       2.61651889  T        0
Si       3.76836485      13.39274938       9.40270662  T        0
Si      13.97232678      13.37334526      10.63645110  T        0
Si      16.33390385       6.33796029       3.85025138  T        0
O       13.75710683      10.31679377      13.71101853  T        0
O        6.34521215       9.41390791      -0.45804175  T        0
H        1.81269882      11.30123319       3.09859993  F        0
H       18.28958667       8.42947104      10.15436836  F        0
H        6.01931354       8.91222751      13.59787507  F        0
H       14.08297195      10.81847671      -0.34490677  F        0
H        3.12887899       8.92429365       0.49683426  F        0
H       16.97340651      10.80641058      12.75613404  F        0
H        1.92726146       8.79770260      10.59110356  F        0
H       18.17502404      10.93300163       2.66186473  F        0
H        5.53537813      12.95496052       1.09262639  F        0
H       14.56690736       6.77574372      12.16034191  F        0
H        2.04924741       6.48050321       2.89306910  F        0
H       18.05303808      13.25020103      10.35989921  F        0
H        8.48702655      15.71151028       8.80063176  F        0
H       11.61525895       4.01919395       4.45233654  F        0
H        5.86807409      12.98161584      13.33116226  F        0
H       14.23421140       6.74908840      -0.07819396  F        0
H        4.37526294       4.01828352       7.26036481  F        0
H       15.72702255      15.71242072       5.99260349  F        0
H        7.92514400       4.01763560       6.85279547  F        0
H       12.17714149      15.71306863       6.40017283  F        0
H        1.73086689      12.60761804      10.35624453  F        0
H       18.37141860       7.12308619       2.89672377  F        0
H        4.05997682      15.72757570       9.28699687  F        0
H        5.99116592       4.00312854       2.66051272  F        0
H       16.04230867       4.00312851       3.96597142  F        0
H       14.11111957      15.72757569      10.59245558  F        0
H       13.51650676      10.58100877      14.61047976  F        0
H        6.58577874       9.14969547      -1.35751146  F        0
Fe      10.05116597       9.86540376       6.62650151  T        1
