135
Lattice="19.123 0.0 0.0 0.0 14.277 0.0 0.0 0.0 7.5465" Properties=species:S:1:pos:R:3:move_mask:L:1:tags:I:1 i=128 E=-2603.9155142701 regions="_JSON [\"Active\"]" n_terminators=32 energy=-906.6910921921221 pbc="F F F"
O        6.18466981       1.13105194       1.58364166  T        0
O       15.74697371       8.53666157       5.97675274  T        0
O        3.43783232       8.48418607       5.87924966  T        0
O        6.13353071      13.15086915       1.52541952  T        0
O       15.86903991       5.87154305       5.54128344  T        0
O        3.43820592       5.79949480       5.86764099  T        0
O        3.48854585       5.78557363       1.73914292  T        0
O        6.14309190      13.13933310       6.00407320  T        0
O       15.84632483       5.72990861       1.56209607  T        0
O        3.49123951       8.48417157       1.74120128  T        0
O        6.13207928       1.13868633       6.01139503  T        0
O       15.86718022       8.40579519       2.17103327  T        0
O        7.36994517       3.46695274       2.37944080  T        0
O       11.64874991       3.24476012       2.45689087  T        0
O        1.96470966      10.74469266       6.12657711  T        0
O        7.36519090      10.83646511       2.37638746  T        0
O       11.67933507      11.07827838       2.50096632  T        0
O        1.95186748       3.54707698       6.10251851  T        0
O       12.04164761      10.37161719       5.14399664  T        0
O        2.16231644       3.48256057       1.34540772  T        0
O        7.17955639      10.81260896       5.02649285  T        0
O       12.08801718       3.90232762       5.10620825  T        0
O        2.15904389      10.79124277       1.35487323  T        0
O        7.16982831       3.46511641       5.02725835  T        0
O        6.51334986       3.08713554      -0.13184137  T        0
O        3.05322287      10.13413794       3.80313351  T        0
O        6.50648090      11.18686032      -0.14689416  T        0
O        3.05754980       4.14118013       3.79630986  T        0
O        4.76657217       3.43406488       1.87117678  T        0
O        4.63345179      10.90667558       5.81389903  T        0
O        4.76709728      10.82801992       1.86899996  T        0
O        4.62574897       3.37371830       5.82145874  T        0
O        1.79492967       1.13244587       0.00352626  T        0
O       11.30504710       8.47229902       3.47559880  T        0
O        7.86123585       8.52348086       3.71294317  T        0
O        1.80890948      13.12733343      -0.02788115  T        0
O       11.27266212       5.81637579       3.51575538  T        0
O        7.86872805       5.76066680       3.73008166  T        0
O       -0.02526277       3.12213376      -0.22426176  T        0
O        9.59406894      10.49399138       3.89195311  T        0
O       -0.02433025      11.15325276      -0.22803032  T        0
O        9.59299882       3.77445776       3.91293125  T        0
O       13.52986585       7.17782628       5.06603568  T        0
O        5.62717736       7.14510882       5.11781469  T        0
O        5.78935483       7.13219471       2.30211547  T        0
O       13.53672599       7.02155946       2.18864681  T        0
O       14.87989596       7.61898348      -0.12293960  T        0
O        5.02887673       7.12341085      -0.06244561  T        0
Si       6.20653543       2.77654852       1.45533885  T        0
Si       3.29120680      10.05320364       5.43304713  T        0
Si       6.19564057      11.50204680       1.44044192  T        0
Si       3.28959209       4.22973246       5.42458283  T        0
Si       3.35866313       4.19613610       2.19757202  T        0
Si       6.13845559      11.48588929       6.09760899  T        0
Si       3.35701344      10.07336830       2.20352213  T        0
Si       6.13105616       2.79186608       6.10002155  T        0
Si       1.56500118       2.77597488      -0.03003138  T        0
Si      11.19310949      10.10882122       3.74919355  T        0
Si       7.99439069      10.16486811       3.75943975  T        0
Si       1.57026699      11.48528565      -0.03080655  T        0
Si      11.18652332       4.17219815       3.74579152  T        0
Si       7.99550976       4.11823829       3.77099835  T        0
Si      14.84873454       7.12523435       6.00962177  T        0
Si       4.37260964       7.14079926       6.11957866  T        0
Si       4.35579458       7.13350911       1.50969403  T        0
Si      14.98382836       7.16203613       1.47679720  T        0
Al      12.55884490       7.12946647       3.62899283  T        0
Al       6.75427611       7.14031740       3.83868942  T        0
O        6.68955798       3.21379288       7.59032816  T        0
O        6.68963803      11.06475877       7.59147479  T        0
O       14.34475437       6.85103133       7.57853426  T        0
O        5.00437372       7.13486208       7.64217913  T        0
O        3.59997640       8.45843206      -1.91282461  T        0
O        3.56772078       5.77235778      -1.89542794  T        0
O        6.31097580      13.05757524      -2.15360198  T        0
O        6.33237861       1.19174017      -2.10338684  T        0
O        7.54394104       3.48113590      -5.36224008  T        0
O        2.33821966      10.75207480      -1.29212239  T        0
O        7.57049212      10.89253975      -5.31147160  T        0
O        2.32531051       3.47429296      -1.31019110  T        0
O        7.45688865      10.70154579      -2.59878038  T        0
O        7.44368490       3.52598720      -2.60012075  T        0
O        2.76886055      10.18160239      -3.83190624  T        0
O        2.77999172       4.03747826      -3.84311289  T        0
O        4.83724629      10.80050229      -2.20568599  T        0
O        4.83092696       3.43910823      -2.18208936  T        0
O        7.32708220       8.48912247      -4.14829606  T        0
O        7.70138808       5.80532870      -3.93842627  T        0
O        9.62200506       9.73958411      -3.98528362  T        0
O        9.66667355       3.89620380      -4.11707822  T        0
O        5.84159058       7.07088157      -2.51950538  T        0
O        5.56541583       6.63402980      -5.18332724  T        0
Si       3.39431684      10.05156388      -2.31233414  T        0
Si       3.38678965       4.18109316      -2.32028544  T        0
Si       6.26660529      11.45819089      -1.75715163  T        0
Si       6.26592374       2.79459762      -1.73717755  T        0
Si       8.00141118       9.98960170      -3.98998952  T        0
Si       8.06666962       4.18925466      -3.97626550  T        0
Si       4.46365546       7.10497610      -1.66126435  T        0
Si       6.62576708       7.02986776      -3.97643400  T        0
H        5.61083456       0.52083913       2.07985367  F        0
H       15.75671561       9.37610020       5.45468838  F        0
H        5.61112307      13.75835362       2.07975607  F        0
H       15.75636517       4.89339805       5.45628994  F        0
H        5.62495998      13.75277707       5.44935724  F        0
H       15.75706449       4.89440344       2.08043705  F        0
H        5.62509051       0.52255101       5.44942550  F        0
H       15.75699573       9.38061947       2.07980242  F        0
H       12.44565577       3.15588527       1.90033815  F        0
H        1.83343022      11.12554006       7.01950242  F        0
H       12.44599272      11.12072140       1.90005270  F        0
H        1.81954193       3.15353441       6.98813474  F        0
H       12.44514575      11.11938908       5.63275925  F        0
H       12.44354748       3.15657450       5.63339447  F        0
H        2.56244240       0.51556882       0.00084209  F        0
H        2.56257806      13.76129914       0.00087584  F        0
H       -0.96435880       2.93479999       0.00082830  F        0
H       -0.96427299      11.34215683       0.00103770  F        0
H       14.60982961       7.13673871      -0.92783774  F        0
H        6.35949513       2.97597070       8.47938261  F        0
H        6.35946036      11.30224636       8.48133548  F        0
H       14.61405599       7.13800201       8.47661577  F        0
H        4.50898861       7.14016697       8.47499567  F        0
H        5.62495998      13.75277707      -2.09714276  F        0
H        5.62509051       0.52255101      -2.09707450  F        0
H        6.67730558       3.15591219      -5.64675051  F        0
H        6.67686405      11.12256578      -5.64493030  F        0
H        3.19736723      10.11759060      -4.70766930  F        0
H        3.20026696       4.16316078      -4.71757657  F        0
H       10.52611047      10.07370688      -3.78446723  F        0
H       10.52510559       4.20251023      -3.78397245  F        0
H        4.87243006       7.14046961      -5.64294599  F        0
Fe       9.62397919       7.13623782       2.83301727  T        0
Fe       7.09015253       7.12319003       0.65916947  T        0
O        8.82038942       7.13597834       1.10757176  T        0
