148
Lattice="24.397 0.0 0.0 0.0 24.397 0.0 0.0 0.0 24.397" Properties=species:S:1:pos:R:3:move_mask:L:1:tags:I:1 i=41 E=-6943.8331748197 regions="_JSON [\"Active\"]" n_terminators=24 energy=-1049.652244089086 pbc="F F F"
O        9.64492968      14.57481878      -0.07839063  T        0
O       12.28973892       9.51342377       2.52688589  T        0
O       14.86884133      21.02316845       6.18042487  T        0
O       12.18202191      15.65937737       8.86808344  T        0
O        9.31907594      18.19988246       3.55289957  T        0
O       15.64771777       9.43918392       6.14663514  T        0
O       18.32609169      14.84298124       8.86937377  T        0
O       21.06314257      12.16523094       3.45577334  T        0
O       20.95063024      15.76764807       0.06458228  T        0
O       18.22557961      20.83652424       2.43849856  T        0
O       14.72838812       9.54502359       0.06511151  T        0
O        9.65919605      12.27046670       2.43890474  T        0
O       21.05696853      14.84816430       6.14650646  T        0
O       15.65286466      12.16970650       8.86954250  T        0
O       18.33039560       9.43300484       3.45595867  T        0
O        9.47296601      15.62715763       6.18034980  T        0
O       14.83664982      18.31403229       8.86794786  T        0
O       12.29513573      21.17679001       3.55216003  T        0
O       15.92107087      20.85112129      -0.07800355  T        0
O       20.98226647      18.20658491       2.52670319  T        0
O       11.67291000      14.00848845       1.91857669  T        0
O       14.03607749      11.44249413       1.85556671  T        0
O       19.05382897      16.45953195       1.85581701  T        0
O       16.48726586      18.82295534       1.91842000  T        0
O       10.30822631      10.20906061       0.85669045  T        0
O       11.28365167      16.54160073       4.38559596  T        0
O       13.95396178      19.21288847       4.38571454  T        0
O       13.99622935      16.49972227       7.05278141  T        0
O       19.22254720      13.91852843       4.38714677  T        0
O       16.57780223      11.27407238       4.38785688  T        0
O       16.51535725      13.98032081       7.05869970  T        0
O       20.28707749      20.18788988       0.85597590  T        0
O       12.07854331      11.98918902       3.55604305  T        0
O       18.50645548      18.41729479       3.55584990  T        0
O       12.22573913       8.61187332       0.01067022  T        0
O        8.68589210      12.07108205      -0.05481044  T        0
O       12.06549061      14.87126919       6.27230300  T        0
O       11.90756655      18.58816125       2.88043376  T        0
O       15.62447943      18.43061998       6.27217205  T        0
O       18.44647159      15.59604497       6.27004333  T        0
O       18.45921774      12.03687693       2.70145318  T        0
O       14.89920717      12.04946289       6.27025396  T        0
O       18.42475770      21.81020308      -0.05518452  T        0
O       21.88429178      18.27009477       0.01054236  T        0
O       10.43930383      16.62016512       1.83248266  T        0
O       14.04082096      10.40673780       4.33754595  T        0
O       20.07933199      13.96918328       1.83755357  T        0
O       16.51553590      20.02026007       4.33719681  T        0
O       16.52637643      10.41718908       1.83819279  T        0
O       10.47579472      13.98030849       4.33739356  T        0
O       13.87539993      20.05643523       1.83234724  T        0
O       20.08936661      16.45565617       4.33787674  T        0
O       20.08571173      22.67137281       1.90184139  T        0
O        7.82443449      10.41017437       1.90203713  T        0
O       16.54728279      16.53909382       7.89141664  T        0
O       13.95673708      13.94864467       7.89186318  T        0
O       22.80402440      20.00130375       1.86276518  T        0
O       10.49455214       7.69192663       1.86293210  T        0
Al      10.87336109      15.28775039       0.86582123  T        0
Si      13.09942216      10.81819451       3.07980781  T        0
Si      19.66472232      15.24072192       0.91801968  T        0
Si      17.43659173      19.55191343       3.07692247  T        0
Si      15.25509509      10.83136290       0.91811814  T        0
Si      10.94403134      13.05919807       3.07716604  T        0
Al      15.20790656      19.62255206       0.86576843  T        0
Si      19.67775220      17.39664601       3.07984830  T        0
Si       9.10485573      11.23789065       1.28008080  T        0
Si      10.82119827      15.27385740       5.29681363  T        0
Si      13.01190800      19.74911884       3.14194691  T        0
Si      15.24079608      17.45369899       7.51860180  T        0
Si      19.69005941      15.19683694       5.30054410  T        0
Si      17.48114402      10.79890114       3.11007272  T        0
Si      15.26042074      13.03701730       7.52253254  T        0
Si      21.49242646      19.18623617       1.30922341  T        0
Si      11.30978211       9.00351456       1.30953888  T        0
Si      15.29919282      10.80614611       5.30071440  T        0
Si      19.69748734      13.01475993       3.10965438  T        0
Si      17.45878805      15.23523574       7.52231612  T        0
Si      15.22199562      19.67498379       5.29672901  T        0
Si      10.74682863      17.48362701       3.14207457  T        0
Si      13.04231071      15.25515952       7.51874105  T        0
Si      19.25805857      21.39103667       1.27963614  T        0
O       14.76838441      12.16575657      -2.62675569  T        0
O       15.86881220      18.31277230      -2.58942715  T        0
O       12.18252127      14.62706405      -2.58884625  T        0
O       18.33045685      15.72789733      -2.62632931  T        0
O       14.10916664      13.97389753      -0.78528617  T        0
O       16.52198810      16.38697427      -0.78516895  T        0
O       13.05510980      10.21862751      -1.92344926  T        0
O       10.12820642      12.90449202      -2.11201593  T        0
O       17.59144276      20.36666596      -2.11149752  T        0
O       20.27760228      17.44154017      -1.92395447  T        0
O       12.37278837      15.62349426      -0.05118514  T        0
O       15.70999872      12.02507908      -0.09960368  T        0
O       18.47063717      14.78597556      -0.09930368  T        0
O       14.87229620      18.12337811      -0.05157638  T        0
O       12.24227051      12.14847209      -3.52388660  T        0
O       18.34744359      18.25359247      -3.52473553  T        0
O       16.59985481      13.89627146      -1.77532016  T        0
O       14.11964799      10.41926974      -4.42517712  T        0
O       22.77257425      16.40448238      -1.73265343  T        0
O       16.52804398      19.94796543      -4.55429909  T        0
O        7.66481317      13.96317589      -1.66576147  T        0
O       14.11096449      16.38478659      -1.97873568  T        0
O       10.54822515      13.96735158      -4.55460520  T        0
O       16.53157002      22.82985643      -1.66657933  T        0
O       20.07672542      16.37605411      -4.42522683  T        0
O       14.09105080       7.72309490      -1.73236973  T        0
Si      15.32318683      12.98420137      -1.34331731  T        0
Si      15.30250237      17.35774750      -1.41321270  T        0
Si      13.13811158      15.19324811      -1.41301923  T        0
Si      17.51177454      15.17297547      -1.34312177  T        0
Si      13.51284716       9.01599948      -0.90549187  T        0
Si      11.24752693      13.40005353      -3.18262491  T        0
Si      17.10375764      21.45789379      -0.96785817  T        0
Si      19.27639791      16.97512722      -3.12964374  T        0
Si       9.03758521      13.39200647      -0.96774196  T        0
Si      13.52099644      11.21965891      -3.12944291  T        0
Si      21.47988714      16.98320255      -0.90580737  T        0
Si      17.09577572      19.24806117      -3.18282267  T        0
H       14.01033133      21.15748981       6.62630180  F        0
H       11.67124922      16.48560174       8.95913012  F        0
H        9.33839640      18.82463975       4.28720704  F        0
H       16.48559112       9.33840607       6.62628668  F        0
H       18.82464116      14.01032609       8.95915608  F        0
H       21.15750258      11.67126816       4.28721909  F        0
H       21.15748967      14.01033142       6.62630180  F        0
H       16.48560162      11.67124930       8.95913012  F        0
H       18.82463962       9.33839646       4.28720704  F        0
H        9.33840600      16.48559124       6.62628668  F        0
H       14.01032599      18.82464129       8.95915608  F        0
H       11.67126808      21.15750273       4.28721909  F        0
H       20.83112530      23.15241223       1.48839475  F        0
H        7.34352333       9.66479174       1.48837704  F        0
H       23.15241204      20.83112542       1.48839475  F        0
H        9.66479163       7.34352337       1.48837704  F        0
H       13.68673308       9.66480596      -4.85513656  F        0
H       23.15240156      16.80916493      -2.53384338  F        0
H       16.80913871      20.83112323      -4.85512183  F        0
H        7.34352146      13.68671965      -2.53387758  F        0
H        9.66480591      13.68673318      -4.85513656  F        0
H       16.80916481      23.15240172      -2.53384338  F        0
H       20.83112308      16.80913882      -4.85512183  F        0
H       13.68671953       7.34352150      -2.53387758  F        0
Fe      16.02289428      16.87007093       1.42927074  T        0
Fe      13.62597757      14.47320235       1.42954782  T        1
O       14.72817516      15.76813713       2.59218487  T        2
O       15.60122118      14.89499120       1.71545832  T        3
