135
Lattice="19.123 0.0 0.0 0.0 14.277 0.0 0.0 0.0 7.5465" Properties=species:S:1:pos:R:3:move_mask:L:1:tags:I:1 i=128 E=-2603.9155142701 regions="_JSON [\"Active\"]" n_terminators=30 energy=-916.847242487217 pbc="F F F"
O       15.88945913       8.45927693       5.75099617  T        0
O       12.98695103       1.35295491       1.87577992  T        0
O       15.37943987       5.89127717       6.02450287  T        0
O       15.76469425       5.86371444       1.62086949  T        0
O       12.76481694       1.12280555       6.06931398  T        0
O       15.97227663       8.44606438       1.91982707  T        0
O       11.68307241       3.63973020       2.39327480  T        0
O       16.91739772       3.31926015       6.36122245  T        0
O       16.92836733       3.40329123       1.33881376  T        0
O       11.80041678       3.47161151       5.07213565  T        0
O       12.55729050       3.11488253      -0.09833734  T        0
O       16.11513194       4.21132808       3.72691442  T        0
O       14.31325120       3.65200611       1.80619956  T        0
O       14.43013925       3.08075625       5.60116083  T        0
O       11.40999523       8.42828129       3.53503399  T        0
O       17.25336607       1.25963245      -0.03623802  T        0
O       11.79243280       5.84776743       3.86695958  T        0
O        9.54069895       4.42737208       3.94967445  T        0
O       13.42004643       7.56008163       5.15299435  T        0
O       15.50067963       0.10770126       1.39808915  T        0
O       15.21325389       0.17288433       6.51272446  T        0
O       13.59722102       7.24480659       2.48375948  T        0
O       14.44741647       7.43202009      -0.06486827  T        0
O       14.34775658       0.17770881       4.09406082  T        0
Si      12.86703948       2.90935706       1.50896773  T        0
Al      15.73482740       4.33044464       5.44192831  T        0
Si      15.74335012       4.32921062       2.16709842  T        0
Si      12.88100228       2.77677961       6.07759101  T        0
Si      17.59137731       2.89224507      -0.12414501  T        0
Si      11.17118611       4.32942323       3.79838017  T        0
Si      14.72054357       7.35895066       6.15407476  T        0
Al      13.93383392      -0.01492749       2.35346571  T        0
Si      13.80015063      -0.06089941       5.60164450  T        0
Si      14.90591740       7.26170407       1.50428291  T        0
Si      12.56866401       7.28298046       3.77829919  T        0
Si      16.25215124      -0.09741459      -0.06163729  T        0
O       21.66274593       3.18292729       8.95674304  T        0
O       21.36635747       1.30844976       7.06907916  T        0
O       19.24298735       2.87600407       7.73195787  T        0
Si      20.89199339       2.82601905       7.53250198  T        0
O       21.24115011       3.88845744       6.30480837  T        0
O       21.24793373       3.86122552       1.25176417  T        0
O       21.16976107       1.26138856       0.38131036  T        0
O       19.21612507       3.04778432      -0.15603005  T        0
Si      20.86913817       2.84404442       0.00168509  T        0
O       21.65586579       3.17956864      -1.41491673  T        0
O       19.22270826      -3.14638160       7.93274963  T        0
O       19.18540075      -3.28084234      -0.19188798  T        0
O       17.12804313       3.73890878       9.06990746  T        0
O       12.56401886       3.35063957       7.59816463  T        0
O       17.09167731       1.24706297       7.99704355  T        0
O       15.24477241      -0.46862388       9.14126362  T        0
O       14.18529623       7.57495856       7.71243673  T        0
Si      17.60063777       2.82107324       7.77130621  T        0
Si      16.19344053      -0.10915570       7.84062842  T        0
O       15.62272079       8.44183002      -2.33684552  T        0
O       15.50482314       5.87100128      -2.00498966  T        0
O       13.01201128       1.20749013      -1.93221734  T        0
O       16.82410350       3.63650478      -1.33298000  T        0
O       11.55278045       3.30397406      -2.56712190  T        0
O       16.32190323       4.01958988      -3.82881385  T        0
O       14.24457685       3.54691679      -2.14331891  T        0
O       13.15584337       7.20258676      -2.30600077  T        0
O       15.26658549      -0.06762030      -1.33926708  T        0
O       14.53151160       0.00650331      -3.85168355  T        0
Si      15.68251961       4.28499751      -2.33867663  T        0
Si      12.84685760       2.82105791      -1.67859776  T        0
Si      14.68513025       7.25606011      -1.67540976  T        0
Si      13.93590610      -0.08067095      -2.31665233  T        0
O       17.11473906      -3.73263004       9.08048368  T        0
O       12.45417054      -3.41380204       7.66370258  T        0
O       17.13601507      -1.40914799       7.63117793  T        0
Si      17.61288323      -2.99450854       7.70153363  T        0
O       15.93934766      -6.02395168       5.84165864  T        0
O       13.22056641      -1.55619092       2.06017347  T        0
O       13.13501614      -1.49245183       5.92004022  T        0
O       15.95218916      -6.07315376       1.91350126  T        0
O       17.06478125      -3.69263220       6.31414047  T        0
O       11.75232246      -3.78299086       2.43319126  T        0
O       11.89169147      -3.73743380       5.10210477  T        0
O       16.98545185      -3.65412581       1.38262201  T        0
O       16.13568359      -4.19124933       3.84204755  T        0
O       12.63585705      -3.14562531      -0.01416339  T        0
O       14.43717995      -3.79270456       5.86639084  T        0
O       14.33649148      -3.96998931       1.85013562  T        0
O       11.31752334      -6.07070571       3.83585340  T        0
O       17.20116545      -1.41631561      -0.06180875  T        0
O        9.53543163      -4.04459903       4.01491418  T        0
Si      15.88287636      -4.42648573       5.44606167  T        0
Si      12.97833350      -3.07187696       1.59359182  T        0
Si      12.97966660      -3.11518276       6.12970059  T        0
Si      15.83853906      -4.45671400       2.24487495  T        0
Si      11.12117831      -4.42065080       3.81196942  T        0
Si      17.56792041      -3.03199894      -0.02725067  T        0
O       15.72355155      -6.06306033      -2.28052947  T        0
O       13.08511856      -1.44778966      -2.05469735  T        0
O       16.81559796      -3.77066191      -1.27821929  T        0
O       11.55526257      -3.66579528      -2.33485084  T        0
O       16.28896237      -3.94916294      -3.82768448  T        0
O       14.24312507      -3.84382869      -2.03581963  T        0
Si      15.74594381      -4.41242010      -2.34225220  T        0
Si      12.89213708      -3.02397586      -1.61989201  T        0
H       15.75671561       9.37610020       5.45468838  F        0
H       15.75699573       9.38061947       2.07980242  F        0
H       11.31595404       9.37380971       3.76235534  F        0
H        8.59637561       4.20354031       3.76204115  F        0
H       22.00636260       3.98381786       9.40800429  F        0
H       21.68544240       0.51556882       7.54734209  F        0
H       21.98145514       3.97853683       5.66306621  F        0
H       22.00636260       3.98381786       1.86150429  F        0
H       21.68544240       0.51556882       0.00084209  F        0
H       21.98145514       3.97853683      -1.88343379  F        0
H       20.08739461      -2.93488337       7.54749186  F        0
H       20.08739461      -2.93488337       0.00099186  F        0
H       16.24121950       3.98053732       9.41400179  F        0
H       12.76321398       2.97604733       8.47995589  F        0
H       14.43595606      -0.00016978       9.40393244  F        0
H       14.61405599       7.13800201       8.47661577  F        0
H       15.75671561       9.37610020      -2.09181162  F        0
H       11.39412799       3.98861071      -3.24188863  F        0
H       15.92661844       4.15901570      -4.70770176  F        0
H       12.88191441       7.13773895      -3.23957932  F        0
H       14.07160463      -0.00015943      -4.71417255  F        0
H       16.24088130      -3.98173953       9.41338238  F        0
H       12.76333233      -2.97624889       8.47967776  F        0
H       15.17320598      -6.62175386       5.84596239  F        0
H       15.17712900      -6.61799919       1.68693573  F        0
H       12.12595522      -6.62290057       3.76264176  F        0
H        8.59739021      -4.20337067       3.76217937  F        0
H       15.17320598      -6.62175386      -1.70053761  F        0
H       11.39521725      -3.98937216      -3.24237523  F        0
H       15.92569105      -4.16115943      -4.70878458  F        0
Fe      16.89304733       1.40456830       2.25970227  T        0
Fe      16.03120443       1.64998970       5.13544901  T        1
O       17.36150540       1.14924918       3.97238631  T        2
