136
Lattice="20.102 0.0 0.0 0.0 19.731 0.0 0.0 0.0 13.253" Properties=species:S:1:pos:R:3:move_mask:L:1:tags:I:1 i=77 E=-3472.0240129048 regions="_JSON [\"Active\"]" n_terminators=32 energy=-913.1905091394505 pbc="F F F"
O       10.02841338      11.60114357       3.94252439  T        0
O        2.19317123      11.23180822       3.94491219  T        0
O        8.78429064       2.66865325       8.32657403  T        0
O        1.95179831      12.78852728       1.75130937  T        0
O        8.46493166       6.98708437       8.50585865  T        0
O        2.26492793      10.11696976       1.57853647  T        0
O        3.75709552      11.09912968       6.18880731  T        0
O        3.75858883       9.10544993       4.47075536  T        0
O        3.86136230       0.84721572       4.59766730  T        0
O        5.52966810       0.52716292      10.28385884  T        0
O        4.82272052      11.47868066       3.79496451  T        0
O        5.03827176       9.03170818      10.86857501  T        0
O        6.13548177       2.54581289       1.19798103  T        0
O        4.71655061      12.54308931       8.24772777  T        0
O        5.93306163       7.40937763       1.32889639  T        0
O        6.10314604      10.36328638       7.44291607  T        0
O        4.16597791       9.01090690       0.09779452  T        0
O        3.83152124      10.02808743       8.63855505  T        0
O        5.88788201       9.96288875       1.94564855  T        0
O        2.29850751       2.56628997       0.98429780  T        0
O        2.10353893       7.53980844       0.92326013  T        0
O        8.62155299      11.01911952       6.08955911  T        0
O        2.87311344       0.81048429      10.62578786  T        0
O        7.44104232      11.30871785       3.64870470  T        0
O        2.59393636       8.22478119      10.17629044  T        0
O        8.94851434       9.15045221       4.10828038  T        0
O        8.42037872       0.75218541       3.61675454  T        0
O        4.14881312       2.35478265       8.77006871  T        0
O        6.17751324      12.66856606       1.76956446  T        0
O        4.59886644       7.47537062       8.66906660  T        0
O        0.03004169       7.06703869       2.95851060  T        0
O        0.08201330       2.70198148       2.57927926  T        0
O       10.43396844       2.55269464       3.65445370  T        0
O       10.22156287       6.79463490       3.61971041  T        0
O        2.43343908       6.86479445       3.85709475  T        0
O        2.47741842       2.95463533       3.65930779  T        0
O        1.58539671       4.85045022       2.02691770  T        0
O        3.80419238       6.96347632       6.10726412  T        0
O        3.74442128       3.15031940       5.93835425  T        0
O        5.08923515       6.88132123       3.79518947  T        0
O        5.17861528       2.94087034       3.69663864  T        0
O        4.29549219       5.00280713       7.65911295  T        0
O        6.34420343       6.59368976       6.87083985  T        0
O        6.42760861       3.03725832       7.05812344  T        0
O        8.39139173       4.86084266       6.95486697  T        0
O        8.67803247       7.22110446       5.82422252  T        0
O        8.67226641       2.54257454       5.68069373  T        0
O        7.67079587       6.93691905       3.32889820  T        0
O        7.81489588       3.20468163       3.23731102  T        0
O        6.15492851       4.97246774       2.28224485  T        0
Si       1.56853276      11.32501428       2.41379746  T        0
Si       3.62141089      10.73562886       4.59605491  T        0
Si       4.59205290      11.03854976       7.60153999  T        0
Si       5.67351181       8.91002594       0.73155583  T        0
Si       2.55572720       9.00590465       0.42359352  T        0
Si       8.73481151      10.73278977       4.45153576  T        0
Si       4.10599016       0.92169231       9.52142340  T        0
Si       6.07933860      11.36137674       2.75698579  T        0
Si       4.04918108       8.70967740       9.59427487  T        0
Al       1.64211450       6.54863080       2.24409539  T        0
Si       1.59075438       3.26816075       2.30041050  T        0
Si       3.79352003       7.49221071       4.53058195  T        0
Si       3.81615575       2.45552593       4.43423286  T        0
Si       4.81145698       6.53302062       7.37175943  T        0
Al       4.77775293       3.26741919       7.44426235  T        0
Si       7.96906223       6.41811398       7.04603991  T        0
Si       8.01928657       3.26612996       6.99471898  T        0
Si       8.88601316       7.52662700       4.23308756  T        0
Si       8.86358147       2.27407675       4.08386551  T        0
Si       6.23676212       6.54551546       2.67604125  T        0
Si       6.31744980       3.37684517       2.60395681  T        0
O        6.77954547       9.27951717      -0.41943656  T        0
O        1.69359257       9.58662117      -0.86009926  T        0
O        2.02569826      -0.96992045       3.92191086  T        0
O        3.64473121      -1.38509426       5.98589661  T        0
O        4.56465003      -1.45917647       3.38007305  T        0
O        4.59949065      -2.84368165       8.06152243  T        0
O        6.05751936      -1.00634301       6.69061974  T        0
O        3.97754884      -0.26574443       8.38864070  T        0
Si       3.55770113      -0.75223181       4.48160883  T        0
Si       4.57801847      -1.36133976       7.33737903  T        0
O       -0.06140628      11.11426513       2.50159654  T        0
O       -4.57445789       7.27417743       5.28036253  T        0
O       -4.40554279       2.60165043       5.22327896  T        0
O       -2.18668026      11.23383506       0.77702007  T        0
O       -2.52735097      11.18038750       3.44479750  T        0
O       -1.75134149       0.73752983       2.97359394  T        0
O       -1.63967959       8.98880880       2.09261173  T        0
O       -4.78243326       2.83682515       2.47410552  T        0
O       -4.76009376       7.14204641       2.52295977  T        0
O       -1.90699649       2.27754396       0.79860743  T        0
O       -1.67101265       6.47634778       1.05828639  T        0
O       -2.40252636       3.19861147       3.36977573  T        0
O       -2.45827205       6.91481632       3.62388935  T        0
O       -4.25912923       4.95120965       4.09895028  T        0
Si      -1.59727058      10.63187896       2.19690028  T        0
Si      -1.47681581       2.25274177       2.39121757  T        0
Si      -1.48535381       7.40368023       2.39978099  T        0
Si      -3.97542781       3.35123240       3.81627924  T        0
Si      -4.04611887       6.55363916       3.89550860  T        0
H       10.94686465      11.30097846       4.04088346  F        0
H        8.32487049       1.96348467       8.80281458  F        0
H        2.20758188      13.00694286       0.83020008  F        0
H        8.32487050       7.90186745       8.80281456  F        0
H        5.99284639       0.93401564      11.03719697  F        0
H        5.99284640       8.93133648      11.03719697  F        0
H        5.69664664       1.68513527       1.05659762  F        0
H        4.03182275      12.92715973       8.82439874  F        0
H        6.92226376      10.80641058       7.12331841  F        0
H        2.35337064       1.61243811       0.82192755  F        0
H        7.89439933      10.75417195       6.69694328  F        0
H        1.92726146       1.06764952      10.59110356  F        0
H        1.92726146       8.79770260      10.59110356  F        0
H        8.57917594      -0.10444883       4.04180490  F        0
H        5.53537813      12.95496052       1.09262639  F        0
H       11.09748793       3.17088023       4.02620164  F        0
H       11.09748793       6.69447189       4.02620164  F        0
H        6.58577874       9.14969547      -1.35751146  F        0
H        1.54448592       9.14594745      -1.70877228  F        0
H        1.81269882      -1.43617684       3.09859994  F        0
H        5.52981240      -1.34062802       3.37578188  F        0
H        4.03182274      -3.06210338       8.82439872  F        0
H        6.92226376      -0.94135423       7.12331841  F        0
H       -4.35421061       8.18021682       5.56988654  F        0
H       -4.35421061       1.68513522       5.56988652  F        0
H       -2.15644976      10.75416907      -0.07046469  F        0
H       -3.49783775      11.30937631       3.49139018  F        0
H       -1.47168132      -0.10444883       2.58467926  F        0
H       -5.70518556       2.56164176       2.37811508  F        0
H       -5.70518557       7.30371036       2.37811510  F        0
H       -2.04192549       3.05661076       0.22907734  F        0
H       -2.04192548       6.80874135       0.22907734  F        0
Fe       2.61688771       4.81132141       6.36858116  T        0
Fe       0.51973483       6.49570025       4.79132737  T        1
O        0.93807624       5.97570939       6.67767901  T        2
O        0.67177016       4.74429087       5.83429208  T        3
