133
Lattice="20.102 0.0 0.0 0.0 19.731 0.0 0.0 0.0 13.253" Properties=species:S:1:pos:R:3:move_mask:L:1:tags:I:1 i=77 E=-3472.0240129048 regions="_JSON [\"Active\"]" n_terminators=28 energy=-916.9635028709554 pbc="F F F"
O       10.24692718       1.46859917       9.62102033  T        0
O       10.20766623       8.70610482       9.73284832  T        0
O       10.06123732      11.49678996       3.68387844  T        0
O        7.79498788       1.33778381      10.66598162  T        0
O        2.37172416      11.57183874       3.84949905  T        0
O        7.75985407       9.18505373      10.55883142  T        0
O        8.11461949       2.78597707       8.58123711  T        0
O        8.07110115       7.35061355       8.69125196  T        0
O        8.36519983       0.11957512       8.27036525  T        0
O        8.50331324       9.97472134       8.13676043  T        0
O        6.53570471       0.47387401      12.92347751  T        0
O        3.75920277      11.09862615       6.05139578  T        0
O        6.54047498       8.68468416      12.81472885  T        0
O        3.03413179       9.05900850       4.44010800  T        0
O        6.15940893      11.05912046      11.62728198  T        0
O        3.09734503       0.78648928       4.50167400  T        0
O        5.10014581       0.94058057      10.67941380  T        0
O        4.96799366      10.74934179       3.73192895  T        0
O        5.07886711       8.84619524      10.57031174  T        0
O        6.25942657       2.45783491       1.29248939  T        0
O        4.63140197      12.61284193       8.12968575  T        0
O        6.22205216       7.43385230       1.41402289  T        0
O        3.85626820       1.47960145       0.85168560  T        0
O        6.15479056      10.72012272       7.16070269  T        0
O        3.85542381       8.37931721       0.84589064  T        0
O        5.93384908      -0.22146619       1.36568712  T        0
O        3.91727322      10.03653166       8.47659997  T        0
O        5.92752294      10.11276346       1.30903945  T        0
O        8.09526897      12.58989528       7.59376414  T        0
O       12.39144890       7.30089447       5.58217595  T        0
O       12.45817800       2.56565201       5.58294604  T        0
O        8.31901794      10.87698893       5.64762003  T        0
O        2.54928604       1.54579239      10.01348492  T        0
O        7.50675984      11.25081121       3.12870782  T        0
O        2.49522054       8.30060736       9.96914949  T        0
O        8.89054426       9.07630195       3.75681020  T        0
O        8.76105517       0.95566685       3.82771436  T        0
O        4.52053843       2.42282789       8.54260051  T        0
O        5.50928135      12.67071291       2.01882217  T        0
O        4.47549288       7.41811594       8.44313348  T        0
O       10.23729632       3.14823742       4.10188675  T        0
O       10.21183912       6.75796238       3.98463270  T        0
O        2.37500573       6.50343083       3.80309566  T        0
O        2.19580229       3.21519529       3.84268134  T        0
O       12.44170567       2.76770812       2.83391378  T        0
O       12.44455011       7.14090196       2.82631712  T        0
O       12.15873233       4.95121663       4.45869466  T        0
O        3.62601282       6.95735704       5.98152972  T        0
O        3.62263807       2.85710101       6.05018856  T        0
O        4.96602494       7.44075967       3.72596512  T        0
O        4.87259049       2.62376000       3.74649012  T        0
O        4.24980511       4.90964592       7.62046149  T        0
O        6.14829444       6.38717931       6.52756560  T        0
O        6.19465879       3.36178781       6.68214108  T        0
O        8.25839036       4.90025919       6.82596253  T        0
O        8.65508669       7.57801119       5.96680491  T        0
O        8.59888098       2.38082331       6.05425807  T        0
O        7.55564914       6.74960289       3.71951610  T        0
O        7.58647766       3.41259292       3.86216176  T        0
O        5.85488043       5.09222461       2.88670339  T        0
Si       8.64559305       1.37808008       9.26603820  T        0
Si       8.63411912       8.76623698       9.24455991  T        0
Si       6.55481231       0.46625554      11.28033178  T        0
Si       3.53703195      10.61597856       4.50948908  T        0
Si       6.37922470       9.43925113      11.36989933  T        0
Si       5.47928258       1.18923845       0.64640775  T        0
Si       4.60023900      11.11291169       7.45428169  T        0
Si       5.46713083       8.69216679       0.65293372  T        0
Si       7.76296578      11.03756144       7.16164818  T        0
Si       8.69688535      10.67288822       4.08391657  T        0
Si       4.03665749       1.14882116       9.44440268  T        0
Si       5.98579386      11.19195580       2.54629235  T        0
Si       3.98683862       8.66987823       9.37960216  T        0
Si      11.84876490       3.35120504       4.25727776  T        0
Si      11.81657031       6.54282071       4.22766151  T        0
Si       3.49597594       7.49475130       4.45166313  T        0
Si       3.46786807       2.38026447       4.47377160  T        0
Si       4.61420839       6.43718577       7.16005292  T        0
Si       4.60970074       3.36624079       7.22416303  T        0
Al       7.84533171       6.62194892       7.15935487  T        0
Si       7.81655104       3.35197396       7.10343255  T        0
Si       8.86023945       7.57722055       4.38365869  T        0
Si       8.81057586       2.45609326       4.43150617  T        0
Si       6.12093385       6.69264359       2.86263528  T        0
Al       6.10921635       3.32062107       2.78359967  T        0
O        5.74340289       1.02295689      -0.97890387  T        0
O        5.82360578       8.69779621      -0.95227663  T        0
O       10.05007615      -1.42335344       3.66195544  T        0
O        2.28394512      -1.68393458       3.91828244  T        0
O        3.78808406      -1.26851785       6.07955369  T        0
O        6.98936857      -1.03315428      10.75340971  T        0
O        4.88961689      -1.01747233       3.68521519  T        0
O        4.68674738      -2.76347606       8.17455680  T        0
O        6.20514888      -0.90687807       7.15426472  T        0
O        3.99020482      -0.20045439       8.51969627  T        0
O        8.36669823      -2.54148260       7.68556546  T        0
O        8.47580582      -0.81632110       5.78326374  T        0
O        7.47517368      -1.28080107       3.31332855  T        0
O        5.86287063      -2.84926863       1.97416039  T        0
Si       3.52192639      -0.78080399       4.53261595  T        0
Si       4.64917296      -1.27355492       7.46705987  T        0
Si       7.83078337      -1.04940327       7.25970822  T        0
Si       8.69455972      -0.65191933       4.17645304  T        0
Si       6.02665845      -1.32304094       2.56465603  T        0
H       10.95532306       1.01526715       9.12727255  F        0
H       10.95532307       8.85008497       9.12727255  F        0
H       10.94686465      11.30097846       4.04088346  F        0
H        1.81269882      11.30123319       3.09859993  F        0
H        6.01931354       0.95312461      13.59787507  F        0
H        6.01931354       8.91222751      13.59787507  F        0
H        6.45001595      11.67065412      10.93294989  F        0
H        4.03182275      12.92715973       8.82439874  F        0
H        3.12887898       0.94105847       0.49683427  F        0
H        3.12887899       8.92429365       0.49683426  F        0
H        8.21123678      12.90527891       8.50458507  F        0
H       12.40451339       8.25291401       5.80455660  F        0
H       12.40451338       1.61243810       5.80455660  F        0
H        1.92726146       1.06764952      10.59110356  F        0
H        1.92726146       8.79770260      10.59110356  F        0
H        5.53537813      12.95496052       1.09262639  F        0
H        2.04924741       6.48050321       2.89306910  F        0
H        2.04924740       3.38484890       2.89306909  F        0
H       13.35632229       2.80449888       2.51220488  F        0
H       13.35632228       7.06085325       2.51220488  F        0
H        6.58577873       0.71565665      -1.35751145  F        0
H        6.58577874       9.14969547      -1.35751146  F        0
H       10.94686465      -1.43592210       4.04088346  F        0
H        1.81269882      -1.43617684       3.09859994  F        0
H        6.45001594      -1.80559776      10.93294989  F        0
H        4.03182274      -3.06210338       8.82439872  F        0
H        8.21123678      -3.04022255       8.50458507  F        0
H        5.53537813      -3.08990416       1.09262638  F        0
Fe       6.85849079       5.01414753       5.02563912  T        1
