136
Lattice="24.397 0.0 0.0 0.0 24.397 0.0 0.0 0.0 24.397" Properties=species:S:1:pos:R:3:move_mask:L:1:tags:I:1 i=41 E=-6943.8331748197 regions="_JSON [\"Active\"]" n_terminators=32 energy=-912.747351795219 pbc="F F F"
O       21.64894360       2.56853760       0.09950708  T        0
O       11.92330783       9.64711724       2.70535430  T        0
O       21.81208109       6.21862920       3.47765717  T        0
O       15.67531641       9.73523934       6.23016871  T        0
O       20.86576087      12.38616141       3.66022139  T        0
O       15.55108546       6.28568864       9.72673817  T        0
O       14.84997151       9.79908381      -0.32478653  T        0
O       21.89614704      -0.14729438       2.60683401  T        0
O       18.26748513       9.71189246       3.46640272  T        0
O       21.95788137       3.42169880       6.36785964  T        0
O       18.43919378       3.30984919       9.68944124  T        0
O       23.74613312       1.63986653       1.94724283  T        0
O       13.80861268      11.25067739       1.69923983  T        0
O       22.66691425       5.49935370       7.95102084  T        0
O       22.74689129       8.12278051       5.47499511  T        0
O       17.66375836      10.50719726       7.90064851  T        0
O       20.19256441      10.40286332       5.26006822  T        0
O       23.45222129       4.26684406       4.34090505  T        0
O       18.87367503      14.14613153       4.25906147  T        0
O       16.43027065      11.45006702       4.31644590  T        0
O       17.64743291       7.86988298      10.54486476  T        0
O       19.98603909       5.36994509      10.65970361  T        0
O       12.15813790      12.22804853       3.62064199  T        0
O       20.87651870       5.89976512       6.12987714  T        0
O       18.18020916       8.81733387       6.00150860  T        0
O       21.97221204      12.25506281       6.14888609  T        0
O       20.91669740       0.00147939       0.09053757  T        0
O       24.50557382       2.48757865       6.09031719  T        0
O       24.35746612       6.14928174       2.67978520  T        0
O       18.35841511      12.22602744       2.61477217  T        0
O       14.60684878      12.23026639       6.17111314  T        0
O       18.11263267       5.88759621       8.91708608  T        0
O       22.58545432       4.33049669       1.79997741  T        0
O       13.94397328      10.48807937       4.29389174  T        0
O       20.01813057       7.92773566       4.28305869  T        0
O       16.63927297       7.97801885       8.02809483  T        0
O       22.72685534      10.54005558       4.34248739  T        0
O       20.20595518      14.07246538       1.82536260  T        0
O       16.40037534      10.56544611       1.77582288  T        0
O       22.66810649       1.70038126       4.40535382  T        0
O       20.22166358       4.32570349       8.16369913  T        0
Al      23.27656311       2.92148070       0.90896634  T        0
Si      12.94540079      10.90307308       3.05488888  T        0
Al      21.46314882       7.07625711       5.03542876  T        0
Si      17.00862077       9.24560062       7.05955078  T        0
Si      21.43533792      11.40916956       4.84892242  T        0
Si      15.14747172      10.98114947       0.79426633  T        0
Si      23.17399892       0.73954519       3.16375359  T        0
Si      19.14797365       9.25485227       4.77054727  T        0
Si      21.41486963       4.77733146       7.14136673  T        0
Si      23.67973798       9.28669677       4.84710336  T        0
Si      23.13949688       2.97395828       5.31987277  T        0
Si      17.34677674      11.01199288       3.03185064  T        0
Si      19.19367512       4.73802262       9.35696304  T        0
Si      15.17099952      10.97912146       5.26789614  T        0
Si      19.57568032      13.22155549       3.08235973  T        0
Si      23.07591828       5.23370591       3.08771749  T        0
Si      16.98485152       7.00080911       9.30874095  T        0
O       24.51891991       8.69442801       3.54552388  T        0
O       28.01319321       8.84556482       0.17249211  T        0
O       28.88109091       6.76452492       1.74342547  T        0
O       26.20753820       6.72864361       4.39561361  T        0
O       24.74696263       9.90183523       5.94445401  T        0
O       26.34941196       7.73210995       1.86156761  T        0
Si      27.62406388       7.40316988       0.88409620  T        0
Si      25.37087588       7.36090614       3.11820638  T        0
O       28.01198443       5.92926053      -2.80505119  T        0
O       24.65715472       2.39431213      -2.71957224  T        0
O       26.23064316       1.72719922      -0.62411159  T        0
O       28.92497628       4.39027888      -0.71119681  T        0
O       27.22322908       6.28296933      -0.23456773  T        0
O       24.33275218      -0.17014543      -3.54744795  T        0
O       26.43974686       4.17107666      -1.79532946  T        0
Si      27.64445700       5.18926520      -1.37650490  T        0
Si      25.41703012       2.96641784      -1.36417011  T        0
O       18.12820607       2.38510219      -3.59521114  T        0
O       20.82224089       2.41171429      -6.23740507  T        0
O       20.08913182       0.71844020      -4.32132529  T        0
O       22.62837127       0.93095236      -1.75928003  T        0
O       18.87162790       1.85425707      -8.05930315  T        0
O       16.30375185       1.87311371      -5.54328588  T        0
O       24.35693276       3.49178216      -0.28408359  T        0
O       15.66301750      12.37021344       0.08392457  T        0
O       18.28512342      -0.09288555      -2.46782618  T        0
O       21.94954613      -0.06595552      -6.13521624  T        0
O       18.33211772       3.45039944      -6.06972781  T        0
O       20.03661852       1.68696270      -1.81983890  T        0
O       22.59501004       1.66898788      -4.31520064  T        0
O       20.15119707       4.30424563      -7.91098436  T        0
O       16.49679237       4.31334527      -4.25558958  T        0
Si      19.11702447       1.18190050      -3.08629591  T        0
Si      21.34997407       1.19302526      -5.26972975  T        0
Si      23.57766832       1.21246931      -3.08063522  T        0
Si      19.54518042       3.01132006      -7.08787367  T        0
Si      21.30036077       1.25719617      -0.87392906  T        0
Si      17.29786383       3.01303446      -4.87382323  T        0
O       22.55106721      -1.92382168       0.61180935  T        0
O       24.30750575      -0.27223177       3.80474968  T        0
O       20.09966619      -1.85765843       1.91192820  T        0
Si      21.37140142      -1.00125094       1.31556102  T        0
H       11.67127885       9.33842242       1.81195952  F        0
H       15.43757911       5.57209275      10.38640946  F        0
H       14.01041460       9.33842077      -0.52721165  F        0
H       17.77043311       3.23924387      10.38640412  F        0
H       23.12591797       5.02704618       8.65412107  F        0
H       17.22544067      10.92750153       8.65411313  F        0
H       19.36965547      14.75328399       4.82834093  F        0
H       17.22544070       8.65411150      10.92750362  F        0
H       20.85245744       5.02708867      10.92752556  F        0
H       11.39908935      12.70105073       3.24464026  F        0
H       21.54216027      12.99764967       6.60187561  F        0
H       24.89951425       2.85451703       6.89840128  F        0
H       15.05290853      12.70105704       6.89848521  F        0
H       19.78591980      14.73191782       1.24430354  F        0
H       28.68412771       8.95914275      -0.52719976  F        0
H       29.22534432       7.17131743       2.55494170  F        0
H       26.95194123       7.17131746       4.82834527  F        0
H       25.19630608       9.34383456       6.60185911  F        0
H       28.68420928       6.62630035      -2.86021198  F        0
H       26.95192867       1.27083937      -1.07240246  F        0
H       29.22533941       3.54426653      -1.07238230  F        0
H       25.19622735      -0.50276655      -3.24494277  F        0
H       19.36968740       1.27081557      -8.65438303  F        0
H       15.74261410       1.27081536      -5.02730892  F        0
H       15.44299305      12.70103244      -0.79954860  F        0
H       17.49833355      -0.50278089      -2.85477948  F        0
H       21.54221652      -0.50278066      -6.89866328  F        0
H       19.78593015       4.85484827      -8.63303166  F        0
H       15.76396555       4.85484859      -4.61106623  F        0
H       23.12589418      -2.55519498       1.07214050  F        0
H       24.89950013      -0.79949361       3.24468082  F        0
H       19.54187317      -2.53384464       1.48839915  F        0
Fe      19.97804187       6.76862535       2.64877321  T        0
Fe      20.72622960       4.17517086       0.81804955  T        1
O       19.17510321       5.12686800       1.69951488  T        2
O       19.92239791       6.07227733       0.75502631  T        3
