136
Lattice="20.102 0.0 0.0 0.0 19.731 0.0 0.0 0.0 13.253" Properties=species:S:1:pos:R:3:move_mask:L:1:tags:I:1 i=77 E=-3472.0240129048 regions="_JSON [\"Active\"]" n_terminators=36 energy=-894.4618350996174 pbc="F F F"
O       10.22306123      18.35621800       4.34237579  T        0
O       10.05853023      10.83430870       4.11905751  T        0
O        2.22711747      11.32927149       3.98254180  T        0
O        2.31930961      18.26899567       3.93303338  T        0
O       12.36064613      18.18883151       2.70934575  T        0
O       12.14862808      11.13585571       2.56040345  T        0
O       12.38546802      17.10258437       5.14417091  T        0
O       12.13954171      12.19950242       5.04575506  T        0
O        8.41988511       9.93655039       8.62954305  T        0
O       12.54968073      19.80335992       4.76067094  T        0
O       12.38169152       9.52819029       4.62902213  T        0
O        3.77034036      10.60874925       6.01017103  T        0
O        3.80246421      19.08093453       5.96250164  T        0
O        5.89035057      19.13471605      10.81985188  T        0
O        3.13758581       8.85720601       4.00508627  T        0
O        6.03676454      10.56527101      10.75507440  T        0
O        4.86174767      10.90768616       3.60228101  T        0
O        4.99058185      18.61755046       3.63777220  T        0
O        4.08337387      12.31877772       8.00531601  T        0
O        3.94545907      17.41382335       8.01585498  T        0
O        6.01394265      10.49984422       7.44883665  T        0
O        6.03074885      18.97350075       7.43384207  T        0
O        3.68633362       9.64292227       8.49957923  T        0
O        6.45602355       9.63286022       1.80204273  T        0
O        3.75975702      20.13657779       8.35317795  T        0
O        7.74515921      12.42400872       8.11037764  T        0
O        7.97412577      17.18441401       8.00931423  T        0
O        8.27177653      10.85273670       6.08734800  T        0
O        8.26496321      18.98706185       6.03521267  T        0
O        7.51549286      11.17693914       3.56428806  T        0
O        7.66916706      18.47409888       3.49983779  T        0
O        1.46661858      19.05377864      11.25193854  T        0
O        8.34682113       8.75781954       4.59949285  T        0
O        1.31891489      10.42547535      11.36223569  T        0
O       11.82302594      10.59887254       9.61839382  T        0
O       11.65252534      19.06427396       8.63310641  T        0
O        6.01832544      12.29680526       1.63113562  T        0
O        6.08382998      17.32994278       1.58964711  T        0
O       10.25809570      17.02471249       9.85143579  T        0
O        9.96378373      12.61636799       9.57904374  T        0
O        7.49741642      16.91047065      10.85132069  T        0
O        7.58731222      12.82866051      10.73566087  T        0
O        8.41176501      14.78774469       9.02669440  T        0
O        5.73005995      17.43977111      12.84165013  T        0
O        6.19022332      12.16961562      12.90713614  T        0
O        4.86696665      16.73286929      10.41170697  T        0
O        4.91287684      12.94658336      10.67389116  T        0
O        5.38485518      14.80640178       0.89011636  T        0
O        3.73175242      16.89426132       0.47088423  T        0
O        3.74287418      12.69659862       0.42121454  T        0
O       14.17889729      12.77962320       6.73442748  T        0
O       14.20645563      16.20633746       6.95040696  T        0
O       12.24782289      14.60818211       6.08286882  T        0
O        1.23759385      16.70587066      12.47881298  T        0
O        1.16431383      12.74413021      12.64695085  T        0
O       11.76135687      12.44181086       7.64080628  T        0
O       11.73364897      16.62818429       7.71490399  T        0
O        2.22145542      16.78008034       9.96237897  T        0
O        2.03938888      12.73075533      10.08735263  T        0
O       12.35832464      13.16669233      10.21789990  T        0
O       12.95867859      17.26328334      10.07820209  T        0
O        3.73911817      14.85954434       8.84502006  T        0
Si      11.86475074      18.38939335       4.26766538  T        0
Si      11.68400712      10.93625456       4.12113823  T        0
Si       3.52617150      10.41068660       4.39940836  T        0
Si       3.62366479      19.18233137       4.34155093  T        0
Si       4.40070109      10.75135936       7.50937871  T        0
Si       4.39908381      18.89977034       7.46686169  T        0
Si       7.59532146      10.88221492       7.55461744  T        0
Si       7.63805836      18.73272588       7.50969093  T        0
Si       8.55713590      10.39165489       4.55069219  T        0
Si       8.80007157      19.14010761       4.49004367  T        0
Si       6.17894808      11.02284218       2.64565978  T        0
Si       6.27746945      18.58366753       2.63664948  T        0
Al       8.63099556      16.53734816       9.59894754  T        0
Si       8.45426533      13.16249135       9.40187066  T        0
Si       6.05527800      17.53027023      11.22294467  T        0
Si       6.17643842      12.14094724      11.25639185  T        0
Si       5.31885442      16.39216825       0.48087083  T        0
Si       5.31886859      13.22297147       0.47774193  T        0
Si      12.59067354      13.03710807       6.36633967  T        0
Si      12.63309548      16.16139637       6.44988435  T        0
Si       1.14522830      17.45558519      11.01658877  T        0
Si       1.02612702      12.04009939      11.15397034  T        0
Si      11.49709877      12.17101946       9.23337331  T        0
Si      11.63034364      17.47907733       9.12073047  T        0
Si       3.68395024      16.46595693       9.32701543  T        0
Al       3.60551226      13.16513110       9.57047837  T        0
O        8.33274810      19.64499165       8.69601151  T        0
O        3.34948015      20.72961289       3.82861425  T        0
O        6.47161345      20.00520477       1.81883760  T        0
O        9.19939720      20.70632894       4.19193419  T        0
O        6.01834706      16.46217756      -1.00665456  T        0
O        6.08546283      13.13956155      -0.97475576  T        0
O       -0.55418727      12.19622938      10.69024503  T        0
O       -0.38390524      17.24594061      10.43618463  T        0
H        1.81269882      11.30123319       3.09859993  F        0
H        1.81269882      18.29482316       3.09859994  F        0
H       13.03074803      18.74401529       2.26762503  F        0
H       13.03074804      10.85204106       2.26762503  F        0
H        8.32625906       8.98649408       8.81306681  F        0
H       12.34310542      20.30287261       5.56688324  F        0
H       12.34314048       9.29328245       5.56696388  F        0
H        6.59189912      19.77694965      11.03822749  F        0
H        3.60112680       8.06005012       4.30646574  F        0
H        6.59189033       9.81912404      11.03827922  F        0
H        4.11249823       9.08086468       9.18193973  F        0
H        5.72719027       9.20254625       1.33756862  F        0
H        4.11250309      20.51523557       9.18186357  F        0
H        1.47196681      19.83515306      10.66828905  F        0
H        8.66651872       8.12235896       3.93953912  F        0
H        1.47196499       9.76092419      10.66834598  F        0
H       11.52310774       9.76092419       9.21110646  F        0
H       11.52310955      19.83515307       9.21116341  F        0
H        5.86807409      16.61444052      13.33116226  F        0
H        5.86807409      12.98161584      13.33116226  F        0
H        2.98936131      16.34896307       0.14601228  F        0
H        2.98936131      13.24709329       0.14601228  F        0
H       14.91456245      13.24933472       6.30897701  F        0
H       14.91456244      16.34672163       6.30897701  F        0
H        2.04221098      16.67409347      13.02389096  F        0
H        2.04221098      12.92196288      13.02389096  F        0
H       13.32025657      13.20375310      10.31771692  F        0
H       13.32025658      16.39230324      10.31771692  F        0
H        8.32625906      20.60985804       8.81306681  F        0
H        3.60112680      21.53630199       4.30646574  F        0
H        5.72719026      20.39380587       1.33756863  F        0
H        8.66651872      21.47399316       3.93953912  F        0
H        6.36643797      17.19386972      -1.54340896  F        0
H        6.36643797      12.40218664      -1.54340896  F        0
H       -1.04605969      13.03623234      10.65268580  F        0
H       -1.04605969      16.55982401      10.65268579  F        0
Fe       4.68244123      14.08426267       7.14997279  T        0
Fe       7.45501648      15.33778515       7.27356413  T        0
O        5.70892908      15.51649135       6.18695819  T        0
O        6.38860730      14.17101006       6.02764317  T        0
