142
Lattice="19.123 0.0 0.0 0.0 14.277 0.0 0.0 0.0 7.5465" Properties=species:S:1:pos:R:3:move_mask:L:1:tags:I:1 i=128 E=-2603.9155142701 regions="_JSON [\"Active\"]" n_terminators=34 energy=-948.3926688022983 pbc="F F F"
O        5.87603272       1.15573536       1.38688056  T        0
O       16.01688954       8.51197204       5.87683334  T        0
O       13.03271081       1.33945560       2.30130754  T        0
O        3.18739537       8.49006715       5.96153138  T        0
O        5.87940933      13.12404663       1.38763942  T        0
O       16.01749216       5.76080203       5.87802991  T        0
O       13.03588941      12.93543039       2.30169668  T        0
O        3.18590312       5.78967740       5.95194847  T        0
O       13.26428056      13.11937790       6.14655224  T        0
O        3.14745033       5.76590596       1.60731271  T        0
O        6.10442930      12.93112518       5.23730339  T        0
O       15.94275467       5.78398174       1.60108923  T        0
O       13.26263320       1.15609939       6.14734301  T        0
O        3.14900899       8.51636791       1.61882671  T        0
O        6.10088815       1.34625574       5.23643748  T        0
O       15.94110524       8.48810433       1.59850706  T        0
O        7.33339585       3.19493017       2.50775314  T        0
O       17.02459867      11.00823797       6.08037172  T        0
O       11.84635676       3.63777062       2.38548614  T        0
O        2.02405775      10.93154744       6.07898827  T        0
O        7.33368791      11.08417265       2.51089682  T        0
O       17.02292085       3.26349146       6.08548639  T        0
O       11.84787835      10.63748698       2.38486519  T        0
O        2.01616191       3.35014946       6.05024664  T        0
O       11.80719190      11.07549119       5.03275887  T        0
O        2.10944779       3.27591453       1.46993027  T        0
O        7.28361772      10.63231722       5.15967828  T        0
O       17.10662337       3.34064764       1.47964254  T        0
O       11.80537437       3.19975919       5.03345532  T        0
O        2.10708219      11.00355199       1.47428210  T        0
O        7.27860066       3.64589264       5.15607385  T        0
O       17.10780594      10.93025354       1.47878333  T        0
O        6.69316542       3.22625384      -0.04978161  T        0
O       16.04656344      10.14473845       3.74619020  T        0
O       12.56332697       2.59192734      -0.04937462  T        0
O        3.07595980      10.11468377       3.79664861  T        0
O        6.68259930      11.04593283      -0.04443988  T        0
O       16.04846565       4.12638285       3.74861190  T        0
O       12.56425890      11.68507682      -0.04991249  T        0
O        3.08719233       4.16951875       3.78449157  T        0
O        4.77334891       3.61483536       1.81581115  T        0
O       14.36444780      10.65486116       5.73142989  T        0
O       14.42491386       3.59281658       1.65441710  T        0
O        4.70242828      10.68271952       5.87952548  T        0
O        4.77034337      10.67055067       1.83343126  T        0
O       14.36333845       3.61961559       5.73182635  T        0
O       14.42551677      10.68102739       1.65127239  T        0
O        4.69741848       3.59345875       5.87860879  T        0
O       11.79827523       8.57764112       4.17127388  T        0
O        7.32550057       8.58601567       3.35911316  T        0
O       11.79664763       5.69729371       4.17170885  T        0
O        7.32558049       5.69278190       3.35804017  T        0
O        9.56658081      10.10082879       3.77305099  T        0
O        9.56501119       4.17470354       3.77309003  T        0
O       13.79411254       7.13591684       5.42492289  T        0
O        5.30061371       7.14114257       5.06249774  T        0
O        5.35803063       7.13806549       2.11267727  T        0
O       13.82667112       7.13520941       2.48466403  T        0
O       14.22503400       7.13292159      -0.04271487  T        0
O        4.35570624       7.14737430      -0.32755742  T        0
Si       6.13846417       2.78570989       1.44454969  T        0
Si      15.85762217      10.06908085       5.37749773  T        0
Si      12.99574358       2.80990657       1.53359433  T        0
Si       3.25574442      10.04444329       5.42800297  T        0
Si       6.13645213      11.49327323       1.44952637  T        0
Si      15.85784830       4.20327800       5.37991678  T        0
Si      12.99707669      11.46566608       1.53287219  T        0
Si       3.25604571       4.23645605       5.41591359  T        0
Si      12.99977321      11.48916999       6.09863890  T        0
Si       3.28359054       4.21934958       2.15208846  T        0
Si       6.13260597      11.46258022       6.00809676  T        0
Si      15.87005278       4.22481430       2.12122294  T        0
Si      12.99814365       2.78625206       6.09923945  T        0
Si       3.28034662      10.06350613       2.16387949  T        0
Si       6.12903571       2.81552633       6.00619457  T        0
Si      15.86962257      10.04729021       2.11876917  T        0
Si      11.24194375      10.12379343       3.82074315  T        0
Si       7.89177367      10.12491116       3.72237143  T        0
Si      11.24030276       4.15128807       3.82121125  T        0
Si       7.89038546       4.15333165       3.72061093  T        0
Si      15.17328038       7.13638577       6.23354839  T        0
Si       4.12111555       7.13865107       6.14370854  T        0
Si       4.00075598       7.14200576       1.26867507  T        0
Si      15.00945802       7.13530726       1.40824161  T        0
Al      12.97518895       7.13649177       3.93081057  T        0
Al       6.15746330       7.13944255       3.61981203  T        0
O       15.72515898       5.79763945      10.01889409  T        0
O       15.72515765       8.47738952      10.01829619  T        0
O        6.55922606       2.60214681       7.59029252  T        0
O       12.44074124       3.21863781       7.59008635  T        0
O        6.55863546      11.67896617       7.59323477  T        0
O       12.44231233      11.05706559       7.58957475  T        0
O       13.32298341       7.13734270       9.90130502  T        0
O       14.88150344       7.13694883       7.83356518  T        0
O        4.90516789       7.13201787       7.59472668  T        0
Si      14.91369711       7.13739066       9.44946706  T        0
O        3.30821402       8.46148302      -2.44523119  T        0
O        3.26368011       5.81220362      -2.41557392  T        0
O        7.74365099       8.38461001      -3.80383268  T        0
O        7.45722336       5.73776713      -4.18608199  T        0
O        5.63471150       7.08039948      -2.65993892  T        0
O        5.74730137       7.47384271      -5.34713753  T        0
Si       4.15803048       7.12879188      -1.93835259  T        0
Si       6.62920538       7.16153833      -3.97272037  T        0
H        5.61083456       0.52083913       2.07985367  F        0
H       13.50938118       0.51971906       2.07492992  F        0
H        5.61112307      13.75835362       2.07975607  F        0
H       13.50958039      13.75682243       2.07498241  F        0
H       13.51084140      13.75504172       5.44776650  F        0
H        5.62495998      13.75277707       5.44935724  F        0
H       13.50975252       0.52161770       5.44778410  F        0
H        5.62509051       0.52255101       5.44942550  F        0
H       17.28974254      11.12548174       7.01862795  F        0
H        1.83343022      11.12554006       7.01950242  F        0
H       17.28979000       3.14560285       7.02339196  F        0
H        1.81954193       3.15353441       6.98813474  F        0
H        1.83183800       3.14857954       0.53722786  F        0
H       17.29134854       3.14797220       0.53999843  F        0
H        1.83154049      11.12909684       0.54034962  F        0
H       17.29120144      11.12876736       0.54010345  F        0
H        6.35952436       2.97904956      -0.93427223  F        0
H       12.76076393       2.97683097      -0.93375646  F        0
H        6.36236324      11.29726414      -0.93275871  F        0
H       12.76174962      11.29928001      -0.93393629  F        0
H       14.60982961       7.13673871      -0.92783774  F        0
H       15.75706449       4.89440344       9.62693705  F        0
H       15.75699573       9.38061947       9.62630242  F        0
H        6.35949513       2.97597070       8.47938261  F        0
H       12.76321398       2.97604733       8.47995589  F        0
H        6.35946036      11.30224636       8.48133548  F        0
H       12.76333233      11.30075111       8.47967776  F        0
H       12.88235039       7.13795337      10.76981689  F        0
H        4.50898861       7.14016697       8.47499567  F        0
H        3.36611374       9.37433505      -2.09115109  F        0
H        3.36064390       4.89097090      -2.09366187  F        0
H        7.80714812       9.37398274      -3.78410482  F        0
H        7.80677964       4.90364681      -3.78479629  F        0
H        4.87243006       7.14046961      -5.64294599  F        0
Fe       8.60189189       7.13981182       2.89464459  T        0
Fe      10.49903875       7.13802060       4.59676913  T        1
O       10.27438833       7.13835848       2.45053336  T        2
O        8.82841993       7.13861063       5.04580909  T        3
