111
Lattice="20.102 0.0 0.0 0.0 19.731 0.0 0.0 0.0 13.253" Properties=species:S:1:pos:R:3:move_mask:L:1:tags:I:1 i=77 E=-3472.0240129048 regions="_JSON [\"Active\"]" n_terminators=26 energy=-746.3597130255522 pbc="F F F"
O       10.13900548       1.16889781       9.63633719  T        0
O       10.21849717       8.65084078       9.73606076  T        0
O       10.06619677      11.31972825       3.62096491  T        0
O        7.66628379       1.09224850      10.46328213  T        0
O        2.11527449      10.97143214       3.96158039  T        0
O        7.92982821       9.31939066      10.86466694  T        0
O        8.13164654       2.18885930       8.07958307  T        0
O        7.70883998       8.13431139       8.58533302  T        0
O        8.38566807      -0.48040247       8.41992502  T        0
O        8.79649798      10.44355624       8.41182091  T        0
O        6.47997476       1.24623264      12.79212680  T        0
O        3.89758951      10.68565582       5.90908059  T        0
O        6.17060848       9.17047139      12.91373187  T        0
O        3.70245699       8.79602910       4.04637391  T        0
O        5.86091052      10.97468684      10.92457761  T        0
O        5.02470854       0.78809580      10.54884515  T        0
O        4.75762744      11.14926465       3.43448076  T        0
O        5.44453633       8.35533564      10.49460426  T        0
O        4.29654368      12.40522297       8.26078206  T        0
O        5.83746326       7.34104879       1.56963675  T        0
O        6.40867201      10.55773890       7.21356121  T        0
O        3.94894623       8.61134005       0.07827015  T        0
O        4.05675865       9.61555961       8.51876174  T        0
O        5.91545584       9.99292353       1.37138018  T        0
O        8.07809726      12.80192377       7.69823363  T        0
O        8.55586224      10.92788068       5.80115498  T        0
O        2.49320841       1.62206694      10.04134138  T        0
O        7.44206077      10.97992147       3.35601285  T        0
O        2.80522898       8.36982929      10.63746329  T        0
O        8.96014221       8.92027915       4.14034353  T        0
O        4.39518352       2.38296428       8.51702712  T        0
O        6.20366763      12.63359792       1.72584533  T        0
O        4.22645283       6.96712900       8.72933528  T        0
O        9.93263110      12.62734308       9.78304249  T        0
O       10.14445057       6.47870758       4.00975926  T        0
O        2.23874667       6.52401831       3.84521857  T        0
O        7.38658433      13.09107303      10.21614848  T        0
O        9.03520296      14.95280020       9.04811459  T        0
O        3.50199238       7.00868610       6.08316050  T        0
O        6.56434742      12.92737451      12.66246892  T        0
O        3.46649483       2.53339878       6.02839190  T        0
O        4.94818705       6.46057572       3.92193284  T        0
O        4.72758655      13.32734860      10.73248736  T        0
O        4.30444911       4.73149792       7.31747911  T        0
O        6.02202945       6.70360413       6.76699106  T        0
O        6.05633402       2.84329506       6.52234046  T        0
O        8.18754627       4.36355085       6.33351226  T        0
O        8.39164533       7.18360759       6.03587277  T        0
O        8.30118790       1.88286215       5.46799802  T        0
O        7.56931583       6.73010253       3.52571496  T        0
O        2.18205903      13.28030524       9.81429156  T        0
O        3.94123361      14.94488371       8.72855181  T        0
O        6.20025273       4.82554500       2.18659903  T        0
Si       8.58961857       1.01167402       9.11831881  T        0
Si       8.68972521       9.13894319       9.39849647  T        0
Si       6.42779291       0.48671593      11.33791922  T        0
Si       3.61662383      10.41990331       4.36085707  T        0
Si       6.37360068       9.49933091      11.34581117  T        0
Al       4.59119218      10.91344283       7.46661505  T        0
Si       5.51460119       8.61161945       0.60364583  T        0
Si       7.92827470      11.23965345       7.27115732  T        0
Si       8.75109912      10.53857831       4.21292966  T        0
Si       3.91211477       1.11087796       9.40723655  T        0
Si       6.07098059      11.17651740       2.47562059  T        0
Si       4.03041837       8.41386498       9.53805281  T        0
Si       8.60524141      13.37929350       9.17524506  T        0
Si       3.59645025       7.22305931       4.44786183  T        0
Si       6.12819139      12.59838726      11.11542753  T        0
Si       4.48155681       6.32906316       7.19896923  T        0
Si       4.56674429       3.12770098       7.09307467  T        0
Al       7.64970272       5.83143563       7.07952873  T        0
Si       7.69510927       2.85705825       6.65656602  T        0
Si       8.79574989       7.31407184       4.43169199  T        0
Si       6.14906914       6.34099390       2.81159243  T        0
Si       3.77131442      13.43877285       9.37456437  T        0
O        5.71826300       7.24917138      14.63644732  T        0
O        3.84581720       9.26559620      14.31544986  T        0
O        6.12918980       9.72428452      15.57140625  T        0
Si       5.44387867       8.84883182      14.36061731  T        0
O        6.46099002       8.42281722      -0.72449272  T        0
O        6.55774512      -1.13431176      11.62696706  T        0
O        3.62989603      -0.24075548       8.49631286  T        0
H       10.95532306       1.01526715       9.12727255  F        0
H       10.95532307       8.85008497       9.12727255  F        0
H       10.94686465      11.30097846       4.04088346  F        0
H        1.81269882      11.30123319       3.09859993  F        0
H        7.75918006      -0.57216837       7.68608506  F        0
H        6.01931354       0.95312461      13.59787507  F        0
H        3.12887899       8.92429365       0.49683426  F        0
H        1.92726146       1.06764952      10.59110356  F        0
H        1.92726146       8.79770260      10.59110356  F        0
H        5.53537813      12.95496052       1.09262639  F        0
H       10.76020325      12.42648900       9.31164420  F        0
H       11.09748793       6.69447189       4.02620164  F        0
H        2.04924741       6.48050321       2.89306910  F        0
H        8.48702655      15.71151028       8.80063176  F        0
H        5.86807409      12.98161584      13.33116226  F        0
H        3.68470477       2.53683452       5.08310689  F        0
H        8.61892989       2.44869843       4.74740482  F        0
H        1.73086689      12.60761804      10.35624453  F        0
H        4.05997682      15.72757570       9.28699687  F        0
H        5.99116592       4.00312854       2.66051272  F        0
H        6.01932001       6.80354450      15.45091456  F        0
H        3.12887899       8.92429365      13.74983426  F        0
H        5.93864452      10.64983954      15.80845558  F        0
H        6.58577874       9.14969547      -1.35751146  F        0
H        6.45001594      -1.80559776      10.93294989  F        0
H        4.32395248      -0.66310163       7.96405278  F        0
Fe       6.92413090       8.57480197       6.77548981  T        0
Fe       6.54006556       6.78219354       9.60053400  T        1
O        7.42795160       5.43500107       8.76234409  T        2
