144
Lattice="24.397 0.0 0.0 0.0 24.397 0.0 0.0 0.0 24.397" Properties=species:S:1:pos:R:3:move_mask:L:1:tags:I:1 i=41 E=-6943.8331748197 regions="_JSON [\"Active\"]" n_terminators=26 energy=-1010.0058585957536 pbc="F F F"
O        9.69984268      14.83314552      -0.15363315  T        0
O       14.74906007      20.87154917       6.13110611  T        0
O       12.24121956      15.71275568       8.77814896  T        0
O        9.59338950      18.28906951       3.63480868  T        0
O       20.94451495      15.69441206       0.01956692  T        0
O       18.40349755      20.82821957       2.61027650  T        0
O        9.66455115      11.96984845       2.71050977  T        0
O        9.61774920      15.67142218       6.18813680  T        0
O       14.78115588      18.26481257       8.75283312  T        0
O       12.11097881      20.81685186       3.63441161  T        0
O       15.85621201      20.95152535      -0.10826924  T        0
O       21.02188261      18.22714202       2.59690236  T        0
O       11.57299814      13.65822148       2.02241677  T        0
O       13.05173734      20.23686802       8.11572645  T        0
O       10.27169629      17.43107144       8.11230614  T        0
O       10.13890414      20.29005011       5.36735533  T        0
O       19.21236995      16.34349970       1.97738584  T        0
O       16.50878101      19.03745205       1.96166533  T        0
O       10.33721287      10.28864425       0.64441021  T        0
O       11.34985183      16.35199312       4.30406400  T        0
O       14.09994004      19.13121452       4.23260525  T        0
O       14.16435621      16.31855397       7.00016406  T        0
O       20.36747347      20.19530658       0.88469169  T        0
O       12.09712646      11.80497858       3.88631326  T        0
O       12.21203812      21.75969019       6.13542786  T        0
O       12.25968526      18.24333509       9.65167442  T        0
O        8.69663352      18.20480462       6.14188270  T        0
O       18.52165103      18.33684618       3.57693164  T        0
O        8.78219078      12.33410347       0.19350793  T        0
O       12.15757540      14.77777699       6.27973623  T        0
O       12.07380102      18.31105230       2.64808676  T        0
O       15.65352762      18.34060441       6.23415286  T        0
O       18.41753567      21.72742146       0.06495430  T        0
O       21.88619650      18.19819240       0.06482108  T        0
O       10.42495083      16.44157141       1.81337440  T        0
O       14.06341531      22.74607006       7.83223235  T        0
O       10.50292706      16.43962974      10.62231463  T        0
O        7.66072334      19.94566180       4.35031017  T        0
O       10.49657264      22.75828037       4.29671362  T        0
O       20.19483544      13.82698799       1.73532427  T        0
O       16.63244124      20.01554237       4.43060358  T        0
O       10.46760449      13.81343834       4.47355100  T        0
O        7.77757253      16.36239823       7.88781521  T        0
O       14.07296190      20.00622752      10.60640575  T        0
O       13.72554337      19.92196830       1.65250437  T        0
O       20.28670196      16.49516545       4.44984582  T        0
O       20.12050368      22.67517771       1.94989725  T        0
O        7.83538008      10.40811904       1.87203583  T        0
O       16.66887058      16.56225012       7.99768041  T        0
O       13.96978068      13.83837708       8.05135074  T        0
O       22.88564455      19.95942201       1.83453052  T        0
Al      11.08183388      14.95890677       1.05804977  T        0
Si      13.51425820      21.40203212       7.06635260  T        0
Si      11.31235166      16.96147860       9.29214301  T        0
Si       9.02030674      19.19392930       4.88758799  T        0
Si      19.69194412      15.17443963       0.93989652  T        0
Si      17.51358358      19.54385523       3.11647267  T        0
Si      10.95231176      12.81510828       3.26630630  T        0
Si       9.09392658      16.93065532       7.09260849  T        0
Si      13.53766814      19.19197186       9.28297279  T        0
Si      11.22939502      21.41154107       4.88363751  T        0
Al      15.32856632      19.63790992       0.86670077  T        0
Si      19.75070847      17.35430663       3.15119126  T        0
Si       9.16186529      11.21560124       1.34622475  T        0
Si      10.89715522      15.13956946       5.32235076  T        0
Si      13.03738619      19.59253057       3.10157582  T        0
Si      15.32227025      17.36202017       7.49618489  T        0
Si      21.53717527      19.15410319       1.34571944  T        0
Si      15.30188949      19.59648902       5.26370612  T        0
Si      10.81799578      17.33755058       3.12281217  T        0
Si      13.14082616      15.15669163       7.52830435  T        0
Si      19.32153744      21.36070908       1.36697413  T        0
O       14.83451602      11.96972421      -2.43187996  T        0
O        5.78898260      14.68043651      -3.41209778  T        0
O       15.83038819      18.35915166      -2.56967367  T        0
O       12.12889321      14.72825718      -2.59008201  T        0
O        8.77281966      14.63596363      -6.43615141  T        0
O       18.33896938      15.74224429      -2.56565053  T        0
O       14.05868510      13.95207277      -0.87108059  T        0
O        7.76352376      13.17089562      -4.42450476  T        0
O       16.44992430      16.43684572      -0.81561804  T        0
O       12.79690890      10.27052127      -1.84024493  T        0
O       10.31525196      12.89743650      -1.90049364  T        0
O       17.55787495      20.41322568      -2.09500142  T        0
O       20.32093345      17.44452270      -1.93229231  T        0
O       12.24210940      15.67739111      -0.08320025  T        0
O       15.85856864      12.17196018       0.08747171  T        0
O        6.12434483      12.10190581      -2.54382643  T        0
O        9.62299010      12.06220722      -6.04761105  T        0
O       18.42000921      14.83742842      -0.03237717  T        0
O       14.63390163      18.31785726      -0.17833346  T        0
O       12.34652724      12.21975657      -3.49816255  T        0
O       18.33719294      18.27416325      -3.46170636  T        0
O       16.58175185      13.91458265      -1.71936948  T        0
O       14.12983892      10.30912617      -4.27443802  T        0
O       22.80107053      16.39591701      -1.72414549  T        0
O       16.52210468      19.95714442      -4.53628559  T        0
O        7.83471839      13.89912423      -1.82954087  T        0
O       14.02453685      16.44745799      -1.92722193  T        0
O       10.36791808      13.86866078      -4.37801684  T        0
O       16.80334739      22.97124781      -1.58380434  T        0
O       20.04444779      16.41873880      -4.43490300  T        0
Si      15.32832386      12.97970619      -1.24238226  T        0
Si       6.86175845      13.46450827      -3.08823583  T        0
Si      15.25829923      17.39069635      -1.39195455  T        0
Si      13.12920811      15.19138922      -1.37642046  T        0
Si       9.09985230      13.44547368      -5.33636684  T        0
Si      17.46203410      15.22798380      -1.28417079  T        0
Si      11.29617809      13.40759076      -3.11030170  T        0
Si      17.13363544      21.49907969      -0.92309505  T        0
Si      19.27122435      16.98323336      -3.09911328  T        0
Si       9.13092236      13.46548028      -0.92496896  T        0
Si      13.51965950      11.17488193      -3.01900155  T        0
Si      21.48814863      16.94080789      -0.89516221  T        0
Si      17.07626926      19.26576131      -3.14882856  T        0
H       10.92752655       9.64346076       1.07209470  F        0
H       12.70105063      11.39908942       3.24464026  F        0
H       13.68673605      23.15239550       8.63276462  F        0
H        9.66477675      16.80915558      10.95402362  F        0
H        7.34351903      20.83116256       4.61081863  F        0
H        9.66481601      23.15243056       4.61081458  F        0
H       19.78590388      13.44267559       2.53358811  F        0
H        7.34350493      16.80917637       8.63275504  F        0
H       13.68672539      20.83112809      10.95404502  F        0
H       19.78593016      15.76396550       4.85484922  F        0
H       20.83112530      23.15241223       1.48839475  F        0
H        7.34352333       9.66479174       1.48837704  F        0
H       17.05322892      15.76398032       7.58755865  F        0
H       14.73195660      13.44271185       7.58757947  F        0
H       23.15241204      20.83112542       1.48839475  F        0
H        5.57209393      15.05833723      -4.28746901  F        0
H        7.91114242      15.05832763      -6.62654864  F        0
H       13.27048028       9.64343273      -1.27111845  F        0
H       15.44303658      11.39914474       0.50251735  F        0
H        5.29990407      11.69569909      -2.85482259  F        0
H        9.34382502      11.69567665      -6.89874716  F        0
H       13.68673308       9.66480596      -4.85513656  F        0
H       23.15240156      16.80916493      -2.53384338  F        0
H       16.80913871      20.83112323      -4.85512183  F        0
H       16.80916481      23.15240172      -2.53384338  F        0
H       20.83112308      16.80913882      -4.85512183  F        0
Fe      10.22858674      16.83873337      -0.42765470  T        0
Fe      12.63375618      18.62114810       0.30830231  T        1
O       11.02292907      18.46273200      -0.58760829  T        2
