136
Lattice="20.102 0.0 0.0 0.0 19.731 0.0 0.0 0.0 13.253" Properties=species:S:1:pos:R:3:move_mask:L:1:tags:I:1 i=77 E=-3472.0240129048 regions="_JSON [\"Active\"]" n_terminators=28 energy=-940.3824868993181 pbc="F F F"
O       10.11104740       8.68693410       9.79773648  T        0
O        9.89559825      11.16755682       3.66868292  T        0
O        1.97948396      11.08956071       4.03293638  T        0
O        7.38408937       8.70918459      10.63816010  T        0
O       17.91093043       8.38986791       9.25933018  T        0
O       12.68615384      10.69618280       2.97524777  T        0
O        8.26329187       6.95696243       8.42078200  T        0
O       11.94748007      12.33223959       5.29123578  T        0
O        8.28209517       9.67604892       7.95196108  T        0
O       11.39789583       9.52699269       5.35844134  T        0
O        3.41247769      10.75927655       6.21481565  T        0
O        6.18293974       9.62051551      12.95689408  T        0
O       16.40939844       9.02523940       7.19815753  T        0
O       13.66680901      11.07441086       0.50142695  T        0
O        3.41955725       8.85072527       4.34357384  T        0
O        6.15434295      11.04719423      10.80921398  T        0
O       17.03760977      10.87239621       9.15110884  T        0
O       14.33885237       8.88199862       1.90356886  T        0
O        4.70526147      11.17090299       3.99981714  T        0
O        4.76091174       8.74030159      10.84391887  T        0
O       15.24769544       8.92395864       9.53191759  T        0
O       15.28140302      11.24812579       2.65588997  T        0
O        4.10575009      12.47472741       8.12054590  T        0
O        6.10347947       7.33228547       1.33187774  T        0
O       15.81591372       7.14113165       5.33389599  T        0
O        5.94215548      10.81324936       7.09880957  T        0
O        3.88289564       8.33787610       0.29890775  T        0
O       13.93649437       8.81949257       6.24444307  T        0
O        3.96209007       9.90199282       8.62948197  T        0
O        5.41012408       9.88220273       1.85218555  T        0
O       15.90359462       9.71143751       4.69191074  T        0
O       14.43723100       9.56659770      12.03316635  T        0
O        8.02464318      12.36605382       7.75744188  T        0
O       12.09621077       6.95661240       5.58397922  T        0
O        8.23566356      10.65798219       5.67562650  T        0
O       11.58729323       8.51173656       7.63949410  T        0
O        7.24579189      11.24077044       3.22331234  T        0
O        2.32256588       8.21620762       9.91958446  T        0
O       12.73728933       8.71223114      10.08960656  T        0
O       17.83525570      11.22076407       3.52516599  T        0
O        8.48042163       8.91184397       3.72941288  T        0
O       11.53026925      10.80027769       8.90159100  T        0
O        5.26283852      12.61466140       1.95736164  T        0
O        4.40167792       7.28935597       8.56589376  T        0
O       14.48658834       7.03466607      11.23051004  T        0
O       16.04180493      12.32141650       5.06288105  T        0
O        9.90451645      12.80264080       9.60385532  T        0
O       10.14114970       6.75416155       3.78096171  T        0
O        2.26081574       6.46915361       3.84319401  T        0
O        7.35186728      13.32557673      10.16829045  T        0
O       12.66196971       7.10311249       3.01208922  T        0
O        8.62250321      14.85570383       8.35469090  T        0
O       12.01226919       4.76650351       3.97577926  T        0
O        3.69990618       6.77466630       6.01878254  T        0
O        6.49598192      13.11914937      12.60486795  T        0
O       16.48578518      13.22282074       7.62974251  T        0
O       13.63751311       6.58924594       0.66529928  T        0
O        4.93062757       6.79859265       3.66344653  T        0
O        4.69607430      13.23242040      10.63114628  T        0
O       15.29373833       6.56768245       2.76279467  T        0
O        4.35643941       4.81775981       7.80961223  T        0
O       16.03654005      14.87944287       5.59988162  T        0
O        6.20673063       6.47764719       6.74567223  T        0
O       14.07785742      13.25996780       6.59699680  T        0
O        8.36449782       4.86012914       6.62886213  T        0
O       12.11754225      14.94255811       5.81026579  T        0
O        8.57846478       7.36185467       5.83727547  T        0
O       11.80565618      13.22268018       7.82945021  T        0
O        7.53129151       6.45254304       3.46610546  T        0
O        2.12601851      13.31316619       9.81734685  T        0
O       12.45436583      12.77364678      10.43332139  T        0
O       17.81993973       7.09029985       3.69617752  T        0
O        3.87869875      14.96765359       8.71542544  T        0
O        5.92080926       4.80665328       2.11030306  T        0
O       16.57853231       4.76094647       4.27400695  T        0
Al       8.45664826       8.45839713       9.32111797  T        0
Al      11.54894414      11.02006549       4.23693748  T        0
Si       3.37812087      10.45702039       4.61922690  T        0
Si       6.15478858       9.48539278      11.31543730  T        0
Si      16.63668502       9.30459527       8.78649768  T        0
Si      13.95841444      10.48518024       2.01920117  T        0
Si       4.35855858      10.99540204       7.51347723  T        0
Si       5.43709074       8.71115653       0.73161570  T        0
Si      15.54507198       8.66398859       5.86495462  T        0
Si       7.55154582      10.93296066       7.17137802  T        0
Si      12.36914117       8.45579143       6.17265186  T        0
Si       8.47977997      10.54018734       4.01222380  T        0
Si      11.48994774       9.18999336       9.18534755  T        0
Si       5.69268604      11.22699628       2.71556052  T        0
Si       3.87744169       8.52541469       9.48923283  T        0
Si      14.22193578       8.57296664      10.73834923  T        0
Si      16.25484529      11.13813528       3.96442914  T        0
Si       8.48209507      13.35257727       8.99924722  T        0
Si      11.70607460       6.36956914       4.09269302  T        0
Si       3.57894118       7.23598730       4.45723135  T        0
Si       6.16755910      12.65418924      11.06801401  T        0
Si      13.99523042       7.30991643       2.09752391  T        0
Si       4.65889559       6.34143787       7.27180553  T        0
Si      15.64545169      13.40597430       6.20859410  T        0
Si       7.81618507       6.37542723       7.00126518  T        0
Si      12.46931587      13.41870063       6.33653830  T        0
Si       8.68130041       7.35689622       4.15616242  T        0
Si      11.43920439      12.41255205       9.17809932  T        0
Si       6.10921102       6.34844713       2.64613305  T        0
Si       3.69900684      13.46614301       9.35221693  T        0
Si      16.36734126       6.37069506       3.98090778  T        0
O        6.35697617       9.38756942      -0.44737845  T        0
H        1.81269882      11.30123319       3.09859993  F        0
H       18.28958667       8.42947104      10.15436836  F        0
H        6.01931354       8.91222751      13.59787507  F        0
H       14.08297195      10.81847671      -0.34490677  F        0
H       16.50115869      11.67065411       8.94650256  F        0
H        3.12887899       8.92429365       0.49683426  F        0
H       14.37509523      10.52815797      11.91539967  F        0
H        1.92726146       8.79770260      10.59110356  F        0
H       18.17502404      10.93300163       2.66186473  F        0
H        5.53537813      12.95496052       1.09262639  F        0
H       14.56690736       6.77574372      12.16034191  F        0
H        2.04924741       6.48050321       2.89306910  F        0
H        8.48702655      15.71151028       8.80063176  F        0
H       11.61525895       4.01919395       4.45233654  F        0
H        5.86807409      12.98161584      13.33116226  F        0
H       16.41758072      12.40218664       8.16986141  F        0
H       14.23421140       6.74908840      -0.07819396  F        0
H        4.37526294       4.01828352       7.26036481  F        0
H       15.72702255      15.71242072       5.99260349  F        0
H        7.92514400       4.01763560       6.85279547  F        0
H       12.17714149      15.71306863       6.40017283  F        0
H        1.73086689      12.60761804      10.35624453  F        0
H       13.32025657      13.20375310      10.31771692  F        0
H       18.37141860       7.12308619       2.89672377  F        0
H        4.05997682      15.72757570       9.28699687  F        0
H        5.99116592       4.00312854       2.66051272  F        0
H       16.04230867       4.00312851       3.96597142  F        0
H        6.58577874       9.14969547      -1.35751146  F        0
Fe       9.70404899       9.18204869       6.52179475  T        1
