148
Lattice="24.397 0.0 0.0 0.0 24.397 0.0 0.0 0.0 24.397" Properties=species:S:1:pos:R:3:move_mask:L:1:tags:I:1 i=41 E=-6943.8331748197 regions="_JSON [\"Active\"]" n_terminators=24 energy=-1049.7768645721592 pbc="F F F"
O        9.42458460      14.58916972      -0.12114036  T        0
O       12.32367533       9.45489929       2.56156732  T        0
O       14.67938845      20.84989017       6.03708036  T        0
O       12.28969378      15.76468039       8.77701649  T        0
O        9.67517667      18.39208139       3.74978945  T        0
O       15.65531110       9.42956208       6.13530963  T        0
O       18.36502458      14.85829918       8.85381046  T        0
O       21.07260120      12.16981892       3.45352253  T        0
O       21.06840874      15.64079326      -0.04775116  T        0
O       18.34440960      21.04087656       2.65203255  T        0
O       14.75891247       9.57390237       0.02451225  T        0
O        9.59762978      12.14956978       2.60200807  T        0
O       21.06903427      14.83243860       6.10712026  T        0
O       15.65668742      12.16950683       8.86823308  T        0
O       18.34611139       9.43976925       3.44673813  T        0
O        9.58509533      15.75676480       6.11477182  T        0
O       14.75605858      18.21267647       8.78897819  T        0
O       12.11571163      20.88471648       3.75125733  T        0
O       15.59422849      21.00365777      -0.19210356  T        0
O       21.05656584      18.30983912       2.63403434  T        0
O       11.46872065      13.93182674       1.88458510  T        0
O       14.03338172      11.41150641       1.85199699  T        0
O       13.08116990      20.17538646       8.08043242  T        0
O       10.29562464      17.42367489       8.10138773  T        0
O       10.07112305      20.45770168       5.44841941  T        0
O       19.25912255      16.48545717       1.77140847  T        0
O       16.57700847      19.26996402       1.66268460  T        0
O       10.33850660      10.16298089       0.93779998  T        0
O       11.44476577      16.42194759       4.33377095  T        0
O       14.11441982      18.85052212       4.29629030  T        0
O       14.06280773      16.47262818       6.86515212  T        0
O       19.25617189      13.98739028       4.29343748  T        0
O       16.59070630      11.26972447       4.37516944  T        0
O       16.60025826      13.91585953       7.03188442  T        0
O       12.09270405      11.96646428       3.54039670  T        0
O       12.18877335      21.83551593       6.25025068  T        0
O       12.23557393      18.26846269       9.69387996  T        0
O        8.70446559      18.29999119       6.21050936  T        0
O       18.43853381      18.42340477       3.34820523  T        0
O       12.26720894       8.60356236       0.02717996  T        0
O        8.73529677      12.00492665       0.07181482  T        0
O       12.10138151      14.80642744       6.28500560  T        0
O       12.16681526      18.15799923       2.69309843  T        0
O       15.77062498      18.42014261       6.29990630  T        0
O       18.47313019      15.59202377       6.24110812  T        0
O       18.47591536      12.04499698       2.69255326  T        0
O       14.91495323      12.03863717       6.26128665  T        0
O       10.18640075      16.49639704       1.93937630  T        0
O       14.05062686      10.39587255       4.34405090  T        0
O       14.14398726      22.65448940       7.92598794  T        0
O       10.49031876      16.42198595      10.60751155  T        0
O        7.64977814      19.94141514       4.37139937  T        0
O       10.58110984      22.91341331       4.42047539  T        0
O       20.09381635      13.93202173       1.73535279  T        0
O       16.52436985      20.00754639       4.27403922  T        0
O       16.54106281      10.43620201       1.82110052  T        0
O       10.47324765      13.91494222       4.38422298  T        0
O        7.79143142      16.37788314       7.88662718  T        0
O       14.07769706      20.00914446      10.60529701  T        0
O       14.01629965      20.08886796       1.67382534  T        0
O       20.06508747      16.54650909       4.33547104  T        0
O        7.85077053      10.31400334       2.00289386  T        0
O       16.55198077      16.46005151       7.88570526  T        0
O       14.04823387      13.97617956       7.87570797  T        0
O       10.53603329       7.61567007       1.83357836  T        0
Al      10.66929525      15.22522688       0.86833517  T        0
Si      13.11482923      10.78575191       3.07937357  T        0
Si      13.51764949      21.39291975       7.07361549  T        0
Si      11.31532079      16.97922963       9.30254283  T        0
Si       9.03994423      19.29567180       4.95654729  T        0
Si      19.72678553      15.23952505       0.82412148  T        0
Si      17.46829149      19.67907910       2.97035849  T        0
Si      15.26621227      10.85099179       0.90349889  T        0
Si      10.89770855      12.98237242       3.11030513  T        0
Si       9.08844904      16.98454412       7.08985877  T        0
Si      13.53125387      19.18490382       9.29634118  T        0
Si      11.24692868      21.50563252       4.94559688  T        0
Si      15.26476175      19.69684456       0.75777488  T        0
Si      19.70305361      17.44840249       3.01779269  T        0
Si       9.11910461      11.15270535       1.38971564  T        0
Si      10.87443647      15.19653535       5.29932085  T        0
Al      13.05553399      19.65863113       3.02319802  T        0
Si      15.29470193      17.40328465       7.47787762  T        0
Si      19.71881380      15.23402222       5.24753799  T        0
Si      17.50097360      10.80722360       3.09420991  T        0
Si      15.31625233      13.01776055       7.49991226  T        0
Si      11.35030519       8.94974557       1.33611783  T        0
Si      15.31723643      10.79611363       5.28715339  T        0
Si      19.72621302      13.03241590       3.05115930  T        0
Si      17.50983492      15.19825105       7.49071223  T        0
Si      15.28597087      19.55838075       5.23557567  T        0
Si      10.78464202      17.40130970       3.10997990  T        0
Si      13.12563088      15.25018397       7.47285251  T        0
O       14.66360060      12.24820898      -2.56652135  T        0
O       15.70379613      18.24482349      -2.80069711  T        0
O       12.16957457      14.62576634      -2.51679180  T        0
O       18.33483744      15.64846463      -2.75816625  T        0
O       14.08893477      14.07164737      -0.66068602  T        0
O       16.52476820      16.48199846      -0.92358343  T        0
O       13.02367967      10.22510467      -1.92149360  T        0
O       10.10840388      12.89923199      -2.04408676  T        0
O       12.19620973      15.60559911       0.00784648  T        0
O       15.68938068      12.08333649      -0.07894590  T        0
O       18.47701184      14.86988150      -0.16193497  T        0
O       14.90548815      18.40439339      -0.19171731  T        0
O       12.17422421      12.16088419      -3.51679776  T        0
O       16.55295009      13.95856924      -1.76690850  T        0
O       14.06527603      10.45271697      -4.41918438  T        0
O        7.47023292      13.42997972      -1.61339919  T        0
O       13.99436997      16.49214018      -1.82362474  T        0
O       10.47413339      14.05148040      -4.45020817  T        0
O       14.11135300       7.74793104      -1.75598580  T        0
Si      15.27750345      13.06833876      -1.30047578  T        0
Si      15.29264220      17.43390951      -1.42741658  T        0
Si      13.07081791      15.25196364      -1.31954097  T        0
Si      17.49388175      15.25603912      -1.39732153  T        0
Si      13.52727336       9.03085291      -0.91654862  T        0
Si      11.21058651      13.42264424      -3.12174725  T        0
Si       8.95277477      13.27570152      -0.92686662  T        0
Si      13.46976925      11.25228602      -3.11471452  T        0
H       16.48559112       9.33840607       6.62628668  F        0
H       18.82464116      14.01032609       8.95915608  F        0
H       21.15750258      11.67126816       4.28721909  F        0
H       21.15749781      16.48550533      -0.52720743  F        0
H       18.82463422      21.15752504       1.81198193  F        0
H       21.15748967      14.01033142       6.62630180  F        0
H       16.48560162      11.67124930       8.95913012  F        0
H       18.82463962       9.33839646       4.28720704  F        0
H       16.48550522      21.15749796      -0.52720744  F        0
H       21.15752488      18.82463433       1.81198193  F        0
H       13.68673605      23.15239550       8.63276462  F        0
H        9.66477675      16.80915558      10.95402362  F        0
H        7.34351903      20.83116256       4.61081863  F        0
H        9.66481601      23.15243056       4.61081458  F        0
H        7.34350493      16.80917637       8.63275504  F        0
H       13.68672539      20.83112809      10.95404502  F        0
H        7.34352333       9.66479174       1.48837704  F        0
H        9.66479163       7.34352337       1.48837704  F        0
H       16.48557283      18.82464187      -2.86023677  F        0
H       18.82464171      16.48557294      -2.86023676  F        0
H       13.68673308       9.66480596      -4.85513656  F        0
H        7.34352146      13.68671965      -2.53387758  F        0
H        9.66480591      13.68673318      -4.85513656  F        0
H       13.68671953       7.34352150      -2.53387758  F        0
Fe      13.59227955      16.90320358       3.85367785  T        0
Fe      13.43929309      14.53358734       1.52339518  T        1
O       14.71385989      15.80244844       2.41226207  T        2
O       14.02770862      14.98026873       3.47444323  T        3
