142
Lattice="19.123 0.0 0.0 0.0 14.277 0.0 0.0 0.0 7.5465" Properties=species:S:1:pos:R:3:move_mask:L:1:tags:I:1 i=128 E=-2603.9155142701 regions="_JSON [\"Active\"]" n_terminators=28 energy=-986.6730966956117 pbc="F F F"
O       15.87749745       8.41568203       5.48597787  T        0
O       12.89624766       1.30825648       1.80570590  T        0
O       15.40118307       5.87315422       5.76171218  T        0
O       15.56779007       5.85265576       1.73178525  T        0
O       12.89066951       1.10940356       5.92345629  T        0
O       15.87586444       8.41753847       2.01053016  T        0
O       11.75580114       3.65938526       2.37310780  T        0
O       17.18736454       3.55219666       6.28085974  T        0
O       16.99407302       3.62185227       1.19787260  T        0
O       11.82987534       3.45479560       5.08030899  T        0
O       12.64055520       3.18107865      -0.15491945  T        0
O       16.08656016       3.94205606       3.64678205  T        0
O       14.38648858       3.41642168       1.89096560  T        0
O       14.43134199       3.16028223       5.50300792  T        0
O       11.27566778       8.40408349       3.65880319  T        0
O       17.31967265       1.29774371      -0.12557768  T        0
O       11.64344125       5.83323327       3.86316233  T        0
O        9.54891159       4.02548085       3.94616665  T        0
O       13.35321112       7.49043855       5.14331631  T        0
O       15.40621243       0.07078698       1.26713337  T        0
O       15.33143231      -0.00143834       6.30357562  T        0
O       13.42923651       7.28385175       2.46312182  T        0
O       14.38968557       7.46940100      -0.03643689  T        0
O       14.38644073       0.33049435       3.87576613  T        0
Si      12.84564193       2.86686347       1.43467964  T        0
Al      15.87148063       4.26794017       5.42423424  T        0
Si      15.80869326       4.29547506       2.06516028  T        0
Si      12.93222951       2.75127402       6.06723840  T        0
Si      17.61226080       2.90305050      -0.15989376  T        0
Si      11.16321134       4.26415940       3.79900904  T        0
Si      14.75640954       7.32017875       6.00517136  T        0
Al      13.90367526      -0.09623941       2.13622325  T        0
Si      13.95193666      -0.04954414       5.44092913  T        0
Si      14.78118693       7.28537400       1.54456868  T        0
Si      12.45385853       7.25927835       3.79617807  T        0
Si      16.32662507      -0.02323408      -0.06007927  T        0
O       19.24075146       3.05079669       8.02913839  T        0
O       19.21032290       3.25563915      -0.30556301  T        0
O       19.20757285      -3.24378278       7.85852987  T        0
O       19.18947551      -3.30561356      -0.16657929  T        0
O       13.06541624       1.24445135       9.47871928  T        0
O       15.50683849       5.89312205       9.42268689  T        0
O       15.55959591       8.47025701       9.91342732  T        0
O       11.55664261       3.38342642      10.02043740  T        0
O       16.80160541       3.59647772       8.90418565  T        0
O       12.72726235       3.15455741       7.63501040  T        0
O       16.36659354       4.24492801      11.38898600  T        0
O       14.25847111       3.60018964       9.81088133  T        0
O       17.24479202       1.26449139       7.67343461  T        0
O       15.32825702      -0.10187868       8.94957626  T        0
O       13.14428238       7.16673129       9.83205035  T        0
O       14.41511473       7.56185664       7.59800940  T        0
O       14.57425900       0.04753359      11.40757774  T        0
Si      12.91707075       2.86314125       9.25374492  T        0
Si      15.72794801       4.33369353       9.87678637  T        0
Si      17.63540637       2.87411801       7.68155679  T        0
Si      13.98873700      -0.05358148       9.87283389  T        0
Si      14.66780599       7.28107179       9.18994824  T        0
Si      16.29568946      -0.05325672       7.63865358  T        0
O       15.62446330       8.43408863      -2.30072334  T        0
O       15.48216884       5.87555703      -1.90106416  T        0
O       13.09152391       1.20610543      -1.91411586  T        0
O       16.81962378       3.61115518      -1.39784463  T        0
O       11.58472707       3.24962098      -2.63269691  T        0
O       16.37446392       4.23181420      -3.85266221  T        0
O       14.25618315       3.57750502      -2.26898238  T        0
O       13.14472634       7.22067761      -2.30338778  T        0
O       15.39997109      -0.05274841      -1.41707200  T        0
O       14.56349054       0.00163447      -3.87305350  T        0
Si      15.71287653       4.32032268      -2.35516031  T        0
Si      12.90489689       2.82037504      -1.74949565  T        0
Si      14.66382690       7.26511955      -1.64371331  T        0
Si      14.03810961      -0.08022980      -2.31157117  T        0
O       13.08901772      -1.40368916       9.63731301  T        0
O       15.69509048      -6.04900954       9.83420627  T        0
O       11.54700362      -3.61626478       9.88197454  T        0
O       16.80114445      -3.74684617       8.82756035  T        0
O       16.28278953      -3.93908650      11.37041474  T        0
O       12.63443365      -3.05672176       7.57759896  T        0
O       14.23173218      -3.82269763       9.58571806  T        0
O       17.21908361      -1.40050448       7.58230637  T        0
Si      12.89751156      -2.97226898       9.19234790  T        0
Si      15.73796982      -4.39737238       9.88502788  T        0
Si      17.60016234      -2.99953900       7.60717464  T        0
O       15.94830725      -6.03367918       5.85865190  T        0
O       13.11177516      -1.61021298       2.06440112  T        0
O       13.22708873      -1.48903410       5.50529150  T        0
O       15.96674092      -6.05349689       1.75030732  T        0
O       17.10020727      -3.67163375       6.18601114  T        0
O       11.71438534      -3.86318506       2.40230465  T        0
O       11.89259366      -3.74492984       5.08325545  T        0
O       16.95988061      -3.61271105       1.35434192  T        0
O       16.13368254      -4.27449111       3.78445151  T        0
O       12.62569911      -3.19144003      -0.03720800  T        0
O       14.44593594      -3.83226468       5.80763817  T        0
O       14.30983083      -3.98839407       1.85373110  T        0
O       11.30599670      -6.09745325       3.87634384  T        0
O       17.27827151      -1.36447113      -0.05794412  T        0
O        9.52712695      -4.07497883       4.05243504  T        0
Si      15.89981349      -4.44686257       5.39204547  T        0
Si      12.93621689      -3.12891887       1.57370343  T        0
Si      13.03686724      -3.04053296       5.99489598  T        0
Si      15.83502294      -4.46039659       2.18170992  T        0
Si      11.10951342      -4.44694260       3.81554395  T        0
Si      17.57888807      -2.97806099      -0.04013006  T        0
O       15.75956072      -6.06103469      -2.24339306  T        0
O       13.17062666      -1.43674258      -2.00769492  T        0
O       16.80348768      -3.71429182      -1.28889490  T        0
O       11.54853451      -3.57157124      -2.37470052  T        0
O       16.30316780      -3.96670171      -3.83038149  T        0
O       14.22789130      -3.88387616      -2.06755149  T        0
Si      15.75728761      -4.40879109      -2.33810296  T        0
Si      12.91245728      -3.01624724      -1.63540082  T        0
H       15.75671561       9.37610020       5.45468838  F        0
H       15.75699573       9.38061947       2.07980242  F        0
H       11.31595404       9.37380971       3.76235534  F        0
H        8.59637561       4.20354031       3.76204115  F        0
H       20.08726577       2.93486642       7.54597012  F        0
H       20.08726577       2.93486642      -0.00052988  F        0
H       20.08739461      -2.93488337       7.54749186  F        0
H       20.08739461      -2.93488337       0.00099186  F        0
H       15.75699573       9.38061947       9.62630242  F        0
H       11.39369377       3.98884644      10.77146895  F        0
H       15.92754156       4.15729643      12.25107281  F        0
H       12.88235039       7.13795337      10.76981689  F        0
H       14.07270598       0.00010018      12.23669175  F        0
H       15.75671561       9.37610020      -2.09181162  F        0
H       11.39412799       3.98861071      -3.24188863  F        0
H       15.92661844       4.15901570      -4.70770176  F        0
H       12.88191441       7.13773895      -3.23957932  F        0
H       14.07160463      -0.00015943      -4.71417255  F        0
H       15.17712900      -6.61799919       9.23343573  F        0
H       11.39439525      -3.98966818      10.77116771  F        0
H       15.92688062      -4.16242016      12.25007275  F        0
H       15.17320598      -6.62175386       5.84596239  F        0
H       15.17712900      -6.61799919       1.68693573  F        0
H       12.12595522      -6.62290057       3.76264176  F        0
H        8.59739021      -4.20337067       3.76217937  F        0
H       15.17320598      -6.62175386      -1.70053761  F        0
H       11.39521725      -3.98937216      -3.24237523  F        0
H       15.92569105      -4.16115943      -4.70878458  F        0
Fe      14.86537058       2.23969779       3.66806562  T        1
