142
Lattice="20.102 0.0 0.0 0.0 19.731 0.0 0.0 0.0 13.253" Properties=species:S:1:pos:R:3:move_mask:L:1:tags:I:1 i=77 E=-3472.0240129048 regions="_JSON [\"Active\"]" n_terminators=30 energy=-979.3761219094737 pbc="F F F"
O       10.07097970       8.28403749       9.22716957  T        0
O       10.10376644      10.89532291       4.06139311  T        0
O        2.10209896      11.27524668       4.03379003  T        0
O        7.87631414       8.42360930      10.68540333  T        0
O       18.06846474       8.59242458       9.22919839  T        0
O       12.50957586      11.15989147       2.69366920  T        0
O        7.82589656       7.18690688       8.30006738  T        0
O       11.68300309      16.88259638       4.82820575  T        0
O       11.86381214      12.31376156       5.09823532  T        0
O        8.06425138       9.85722374       8.42452403  T        0
O       12.35193074       9.67571407       4.83299490  T        0
O        3.54817011      10.56308352       6.18216846  T        0
O       16.58069857       8.65071225       7.15924588  T        0
O       13.89150552      11.28921115       0.48101132  T        0
O        3.00235570       8.81347858       4.18707846  T        0
O       16.26116363      10.60936838       8.91769047  T        0
O       14.09362768       9.06195382       2.05418418  T        0
O       16.71487997      18.97009933       9.38502242  T        0
O        4.77875901      10.84122714       3.83726911  T        0
O       15.39722550       8.17936414       9.52382386  T        0
O       15.17547703      11.36634916       2.80996601  T        0
O        3.84748243      12.46831292       7.98439218  T        0
O       14.02136123      17.15757600      12.12203047  T        0
O       16.15529873       7.41100176       4.89789539  T        0
O       14.27791295      12.30892063      12.00439444  T        0
O        5.92843633      10.89658246       7.26810614  T        0
O       14.10412206       8.39211330       6.33874715  T        0
O       16.11306817      10.66866248      13.19411288  T        0
O        3.92891124       9.99052202       8.87469742  T        0
O        5.51637424      10.14883344       1.31100664  T        0
O       15.72227785      10.02655113       5.04211908  T        0
O       14.35608188       9.76936576      11.30852602  T        0
O        8.03266091      12.47663701       7.97148280  T        0
O        7.67648441      17.19714535       7.75741351  T        0
O       11.90950481       7.13994583       5.54359605  T        0
O        8.32525249      10.90555946       5.97101756  T        0
O       11.71802732       9.13205976       7.32125544  T        0
O        7.29957037      11.07052958       3.18597486  T        0
O       12.71423981       8.42894437       9.68487311  T        0
O       17.70935379      10.64738837       3.46559651  T        0
O        8.37951712       8.57692574       4.09803042  T        0
O       11.22862396      10.63757084       9.46185676  T        0
O       11.90211505      19.03081295       9.59252509  T        0
O        5.41734858      12.66893227       2.01701837  T        0
O       16.30851576      17.19163418       4.66774446  T        0
O       13.92079427       7.06427599      11.49762596  T        0
O       16.37604541      12.58052406       4.86417601  T        0
O        9.95307708      17.18677572       9.27529513  T        0
O        9.87711220      12.90516270       9.78407432  T        0
O       10.11926881       6.51661732       3.69779201  T        0
O        7.68911672      17.00587956      10.50909690  T        0
O        7.24451763      13.43026367      10.41316921  T        0
O       17.74211403      12.39140591      10.03330482  T        0
O       12.63161604       7.05937044       2.99979755  T        0
O       17.74948149      16.46544687       9.44419689  T        0
O        8.50193617      14.99280120       8.81232925  T        0
O       12.15861585       4.78615309       4.20917138  T        0
O       16.76263780      12.85035826       7.50055315  T        0
O       13.49882204       6.95171073       0.51838747  T        0
O       16.36538429      17.20731844       7.34385674  T        0
O       15.12942045      12.91829014       9.55114916  T        0
O       15.26692456       6.71520344       2.50211076  T        0
O       15.09763377      16.85532122       9.66645865  T        0
O       15.95245798      14.92924667       6.01692969  T        0
O        5.98668879       6.65748249       6.42449377  T        0
O       14.28778995      12.86808365       6.53494651  T        0
O       14.06068066      16.85984796       6.08305780  T        0
O        7.60059993       4.68595689       7.48362198  T        0
O       12.23367484      14.91176293       6.44102440  T        0
O        8.51909760       6.52710664       5.77375177  T        0
O       11.39936242      12.51403259       7.60740924  T        0
O       11.87255098      17.37279646       7.45894020  T        0
O        7.59688459       6.12066863       3.26403738  T        0
O       12.52831466      12.89271971      10.02928677  T        0
O       17.85731111       6.31896835       3.08454161  T        0
O       12.47037483      16.53735914       9.95025585  T        0
O       16.01646060       4.87989925       4.37872909  T        0
O       14.06792495      14.78618309      11.07597893  T        0
Si       8.44800605       8.43232709       9.14384805  T        0
Si      11.73498515      10.99615794       4.10801590  T        0
Si       3.38598589      10.38008652       4.54673073  T        0
Si      16.56444923       9.01941108       8.73751124  T        0
Si      13.92894241      10.68075703       2.00297253  T        0
Si       4.30964989      10.94504926       7.57411385  T        0
Si      15.64244397       8.61899717       5.84121210  T        0
Si      14.59966900      10.79256801      12.54534141  T        0
Si       7.52640824      11.00946585       7.41543759  T        0
Si      12.52615289       8.57124132       6.01457427  T        0
Al       8.44111768      10.29101237       4.21292921  T        0
Si      11.45036560       9.10800889       8.93778196  T        0
Si       5.79993441      11.16884037       2.59010318  T        0
Si      14.11283002       8.36633659      10.52002283  T        0
Si      16.25477397      11.18084861       4.03118623  T        0
Si       8.44160070      16.61104625       9.09587073  T        0
Si       8.41827267      13.44116558       9.26511063  T        0
Si      11.68114133       6.35263216       4.11779739  T        0
Si      16.48395102      12.21602213       8.97925830  T        0
Si      13.87955618       7.44106344       2.04153591  T        0
Si      16.46979971      17.39171215       8.95692778  T        0
Si      15.81253619      13.31191778       6.23000605  T        0
Si      15.65417101      16.53041970       6.02722390  T        0
Si       7.49053225       6.25743733       6.99644490  T        0
Al      12.61824111      13.24202529       6.42853899  T        0
Si      12.47175481      16.47988448       6.21804550  T        0
Si       8.63718555       6.99678703       4.19979415  T        0
Si      11.27536845      12.24782772       9.24062765  T        0
Si      11.53482110      17.52106841       9.04612175  T        0
Si      13.99777954      13.21549941      10.67306603  T        0
Si      16.32825649       6.33521724       3.69725218  T        0
Si      13.92219833      16.36452566      10.68695895  T        0
O       13.51999538      10.31569607      13.68172616  T        0
H        1.81269882      11.30123319       3.09859993  F        0
H        7.07153747       8.87866318      10.98534327  F        0
H       18.28958667       8.42947104      10.15436836  F        0
H       11.77741499      17.76721957       4.45015374  F        0
H       14.08297195      10.81847671      -0.34490677  F        0
H        3.60112680       8.06005012       4.30646574  F        0
H       16.64304187      19.77694965       8.84122497  F        0
H        4.03182275      12.92715973       8.82439874  F        0
H       14.40563884      18.04556895      12.19637069  F        0
H       16.97340651      10.80641058      12.75613404  F        0
H        4.11249823       9.08086468       9.18193973  F        0
H        5.72719027       9.20254625       1.33756862  F        0
H        7.69777211      18.11826613       7.44841170  F        0
H       18.17502404      10.93300163       2.66186473  F        0
H       11.52310955      19.83515307       9.21116341  F        0
H        5.53537813      12.95496052       1.09262639  F        0
H       15.87290964      17.87210703       4.12309272  F        0
H       14.56690736       6.77574372      12.16034191  F        0
H        6.74596320      16.92620537      10.74076342  F        0
H        6.74596321      12.66985099      10.74076342  F        0
H       18.05303808      13.25020103      10.35989921  F        0
H       18.05303809      16.34585533      10.35989921  F        0
H       11.61525895       4.01919395       4.45233654  F        0
H       14.23421140       6.74908840      -0.07819396  F        0
H        5.18772305       6.48136951       6.94399129  F        0
H        7.92514400       4.01763560       6.85279547  F        0
H        6.78202892       6.52695113       2.93525138  F        0
H       18.37141860       7.12308619       2.89672377  F        0
H       16.04230867       4.00312851       3.96597142  F        0
H       13.51650676      10.58100877      14.61047976  F        0
Fe      10.10988335      11.84204288       6.14753821  T        1
