135
Lattice="24.397 0.0 0.0 0.0 24.397 0.0 0.0 0.0 24.397" Properties=species:S:1:pos:R:3:move_mask:L:1:tags:I:1 i=41 E=-6943.8331748197 regions="_JSON [\"Active\"]" n_terminators=24 energy=-949.2113906351344 pbc="F F F"
O        9.42634232      14.61386641      -0.12004936  T        0
O       12.33692355       9.45966913       2.56973651  T        0
O       14.72783573      20.85573328       6.03845490  T        0
O       12.30561530      15.73819701       8.79602944  T        0
O        9.66333031      18.38331224       3.76468692  T        0
O       15.68756835       9.40723364       6.08238582  T        0
O       18.74357588      14.85960603       8.48989930  T        0
O       18.64056925      20.76096388       2.68714048  T        0
O       14.80581093       9.53576333       0.04484146  T        0
O        9.61128814      12.14125011       2.61978173  T        0
O       15.68566067      12.21510184       8.88941544  T        0
O       18.68989167       9.75712438       3.41661134  T        0
O        9.61184340      15.76672014       6.11754890  T        0
O       14.83247738      18.20091517       8.83487106  T        0
O       12.13620220      20.92720387       3.76058523  T        0
O       15.60700769      21.01847948      -0.15554190  T        0
O       11.46690732      13.92640441       1.86678807  T        0
O       14.05864852      11.39864783       1.82700125  T        0
O       13.14880877      20.13886349       8.08051374  T        0
O       10.32566639      17.41447435       8.11819614  T        0
O       10.07879469      20.46903632       5.43613814  T        0
O       16.65751288      19.28668082       1.64648094  T        0
O       10.34932536      10.16579411       0.94276718  T        0
O       11.46738720      16.44115319       4.32924149  T        0
O       14.12841307      18.85099863       4.32416710  T        0
O       14.09957149      16.48650285       6.91412511  T        0
O       16.67269298      11.26302099       4.39009502  T        0
O       16.67189338      13.90669429       7.04202154  T        0
O       12.11883176      11.97369142       3.52809250  T        0
O       12.21927144      21.80281692       6.28001208  T        0
O       12.28943838      18.24281577       9.69680910  T        0
O        8.73075778      18.31072336       6.23988462  T        0
O       18.26001772      18.19277024       3.53245502  T        0
O       12.29092864       8.61319534       0.03820785  T        0
O        8.75790948      12.02297257       0.08098587  T        0
O       12.13060438      14.83214153       6.28875976  T        0
O       12.15158040      18.21554041       2.69961947  T        0
O       15.80675327      18.42880524       6.33062829  T        0
O       18.29664497      15.80639161       6.00841693  T        0
O       18.30655743      12.27400953       2.48575297  T        0
O       14.98844886      12.02862807       6.26955885  T        0
O       10.20758547      16.51490978       1.93503420  T        0
O       14.10197292      10.42771780       4.31947550  T        0
O       14.16650429      22.63921417       7.95086705  T        0
O       10.51058325      16.44112321      10.63266520  T        0
O        7.64300806      19.93111309       4.40351363  T        0
O       10.60980622      22.96251339       4.53285384  T        0
O       16.55002033      19.99320217       4.25590331  T        0
O       16.57873024      10.43193952       1.85049688  T        0
O       10.50821111      13.92535253       4.38398207  T        0
O        7.81982297      16.37499425       7.90486737  T        0
O       14.09647447      20.00984564      10.62394591  T        0
O       14.07280902      20.06848375       1.71510896  T        0
O        7.85494435      10.31904123       1.99388664  T        0
O       16.60671496      16.43047174       7.90099884  T        0
O       14.08785512      13.98091212       7.85147316  T        0
O       10.54161398       7.61626900       1.82399598  T        0
Al      10.68507126      15.23472201       0.86969342  T        0
Si      13.14049795      10.79516454       3.06465631  T        0
Si      13.56355535      21.37290853       7.08531134  T        0
Si      11.34509569      16.96744332       9.31895469  T        0
Si       9.04689084      19.29676026       4.97186641  T        0
Si      17.53499462      19.56904684       3.00048569  T        0
Si      15.31125675      10.83009521       0.90690144  T        0
Si      10.91685380      12.98892490       3.10312993  T        0
Si       9.11591888      16.98500505       7.10550176  T        0
Si      13.58708895      19.16372015       9.31259217  T        0
Si      11.26795560      21.52045343       4.97320305  T        0
Si      15.31120473      19.69269795       0.78201660  T        0
Si       9.13145349      11.15861117       1.39525587  T        0
Si      10.90568173      15.21460772       5.29556889  T        0
Al      13.07876928      19.68176501       3.05852711  T        0
Si      15.35358194      17.39768008       7.50677613  T        0
Si      17.57713104      10.92309695       3.06446280  T        0
Si      15.36545185      13.03316332       7.49678764  T        0
Si      11.36313057       8.95383070       1.34149488  T        0
Si      15.37016611      10.80105194       5.26814189  T        0
Si      17.58989412      15.22653637       7.36988898  T        0
Si      15.32251730      19.54773575       5.24313505  T        0
Si      10.79325966      17.41935974       3.11390895  T        0
Si      13.15390251      15.25928635       7.48304873  T        0
O       14.68913836      12.26591157      -2.57783981  T        0
O       15.73721537      18.20378614      -2.80154616  T        0
O       12.21525782      14.61676877      -2.53519890  T        0
O       18.59470395      15.59681976      -2.52574036  T        0
O       14.10136498      14.04028159      -0.63270927  T        0
O       16.62210563      16.50563313      -0.90708452  T        0
O       13.07687651      10.23601186      -1.89484809  T        0
O       10.13228338      12.92077424      -2.03223613  T        0
O       12.20257229      15.60466433      -0.01622799  T        0
O       15.72891826      12.04287461      -0.10316636  T        0
O       18.35682155      14.64745884       0.02085164  T        0
O       14.96270906      18.40357207      -0.18236960  T        0
O       12.18802591      12.14585006      -3.50321225  T        0
O       16.56788639      13.98385388      -1.74614697  T        0
O       14.07763314      10.44320066      -4.41114577  T        0
O        7.48593906      13.43156259      -1.61473294  T        0
O       14.06737833      16.45323362      -1.79218738  T        0
O       10.49005503      14.03016092      -4.45869267  T        0
O       14.11739615       7.73679415      -1.75269469  T        0
Si      15.30738687      13.06000952      -1.29335495  T        0
Si      15.35187894      17.41565515      -1.40519047  T        0
Si      13.10016224      15.23161937      -1.31748375  T        0
Si      17.56230067      15.22305326      -1.29399271  T        0
Si      13.56144972       9.02473387      -0.90019383  T        0
Si      11.23254327      13.41909234      -3.12264662  T        0
Si       8.96832576      13.29363770      -0.92136998  T        0
Si      13.49749635      11.25352905      -3.10516777  T        0
H       16.48559112       9.33840607       6.62628668  F        0
H       18.82464116      14.01032609       8.95915608  F        0
H       18.82463422      21.15752504       1.81198193  F        0
H       16.48560162      11.67124930       8.95913012  F        0
H       18.82463962       9.33839646       4.28720704  F        0
H       16.48550522      21.15749796      -0.52720744  F        0
H       19.09683476      17.79487503       3.24462109  F        0
H       19.09684364      15.44301376       5.59651532  F        0
H       19.09682945      12.70103459       2.85456062  F        0
H       13.68673605      23.15239550       8.63276462  F        0
H        9.66477675      16.80915558      10.95402362  F        0
H        7.34351903      20.83116256       4.61081863  F        0
H        9.66481601      23.15243056       4.61081458  F        0
H        7.34350493      16.80917637       8.63275504  F        0
H       13.68672539      20.83112809      10.95404502  F        0
H        7.34352333       9.66479174       1.48837704  F        0
H        9.66479163       7.34352337       1.48837704  F        0
H       16.48557283      18.82464187      -2.86023677  F        0
H       18.82464171      16.48557294      -2.86023676  F        0
H       19.09678362      15.05286173       0.50248505  F        0
H       13.68673308       9.66480596      -4.85513656  F        0
H        7.34352146      13.68671965      -2.53387758  F        0
H        9.66480591      13.68673318      -4.85513656  F        0
H       13.68671953       7.34352150      -2.53387758  F        0
Fe      13.60938041      16.91826592       3.77582864  T        0
Fe      13.46305286      14.51386615       1.48748454  T        0
O       14.19573720      15.40171836       2.91030233  T        0
