142
Lattice="19.123 0.0 0.0 0.0 14.277 0.0 0.0 0.0 7.5465" Properties=species:S:1:pos:R:3:move_mask:L:1:tags:I:1 i=128 E=-2603.9155142701 regions="_JSON [\"Active\"]" n_terminators=32 energy=-959.9607566395568 pbc="F F F"
O        6.09255000       1.13874727       1.49759349  T        0
O       15.68200920       8.46346180       5.71566267  T        0
O       13.45258064       1.09339884       1.29744493  T        0
O        3.50361882       8.44847897       5.79687257  T        0
O        6.05290441      13.14227240       1.46407860  T        0
O       15.77493407       5.79185099       5.90825753  T        0
O       12.85461383      13.06680692       1.82701056  T        0
O        3.43629404       5.76055433       5.84757444  T        0
O       13.25078722      13.21296822       6.21301554  T        0
O        3.40311754       5.79623334       1.70136647  T        0
O        6.04268333      13.15238990       6.09551111  T        0
O       15.64263951       5.87810377       1.82647939  T        0
O       13.25118414       1.09616522       6.19181072  T        0
O        3.40202663       8.48686326       1.70440335  T        0
O        6.26410480       1.18501620       5.77950158  T        0
O       15.72242482       8.56092486       1.85025560  T        0
O        7.11774840       3.47596184       2.47863190  T        0
O       17.22464992      10.61952137       6.18558467  T        0
O       11.81882446       3.15200287       2.20585624  T        0
O        1.92277862      10.60096301       6.19483520  T        0
O        7.18058925      10.84987253       2.45830968  T        0
O       17.19249517       3.50567140       6.12072345  T        0
O       11.92900261      10.50511453       2.28797225  T        0
O        1.98009374       3.48129812       6.07963939  T        0
O       12.04601224      11.06257018       5.03854007  T        0
O        1.91769406       3.55535944       1.42407115  T        0
O        7.12449965      10.84985975       5.07968916  T        0
O       17.00104090       3.57789477       1.32149388  T        0
O       11.94002633       3.21465217       5.05281235  T        0
O        1.93041198      10.73623114       1.43293022  T        0
O        7.25888016       3.60107353       5.11486815  T        0
O       17.18730630      10.81567752       1.46194125  T        0
O        6.65460163       3.24534980      -0.04628403  T        0
O       16.07945746      10.30122008       3.82025169  T        0
O       12.93468695       3.06576939      -0.24297683  T        0
O        2.98668930      10.11815697       3.78812997  T        0
O        6.61185835      11.00048095      -0.04208771  T        0
O       16.16276552       4.18119069       3.80626851  T        0
O       12.46710056      11.05479451      -0.04484689  T        0
O        3.04769258       4.12883899       3.76132577  T        0
O        4.57445450       3.36697347       1.70802694  T        0
O       14.55625413      10.88970932       5.94422773  T        0
O       14.39900597       3.54022638       1.92826074  T        0
O        4.55994302      10.92863002       5.79901315  T        0
O        4.59657519      10.89687415       1.79412941  T        0
O       14.50132425       3.44091909       5.78832830  T        0
O       14.53418811      10.96371076       1.72025052  T        0
O        4.65543205       3.36234602       5.76060919  T        0
O       11.56471633       8.37284068       3.82812224  T        0
O       17.28976764       1.18126020      -0.00516465  T        0
O        7.43856046       8.52588989       3.78252275  T        0
O       11.62816946       5.75586204       3.62366718  T        0
O        7.59922128       5.89407601       3.63592300  T        0
O        9.42982777      10.28316564       3.82771082  T        0
O        9.47461294       4.25178291       3.57169390  T        0
O       13.56595079       6.98590424       5.06091562  T        0
O        5.67265599       7.00869082       5.12307236  T        0
O        5.58031111       7.13737443       2.44794524  T        0
O       13.40956397       7.34206864       2.35691005  T        0
O       14.38469410       7.34095952      -0.07903510  T        0
O        4.96547220       7.13076629      -0.06938474  T        0
Si       6.07182863       2.78803354       1.41808934  T        0
Si      15.86387890      10.07315056       5.43691013  T        0
Si      13.10629421       2.71704359       1.33889838  T        0
Si       3.25480952      10.02993256       5.40614519  T        0
Si       6.08450044      11.48615514       1.43603919  T        0
Si      15.88146667       4.21890110       5.42279578  T        0
Si      13.00191314      11.46370493       1.47005820  T        0
Si       3.28942994       4.19303462       5.37960715  T        0
Si      13.06977810      11.56555021       6.16862742  T        0
Si       3.24482676       4.22091833       2.13738678  T        0
Si       6.06306921      11.49751717       6.12444981  T        0
Si      15.81502880       4.27535817       2.21167743  T        0
Si      13.04469655       2.74358630       6.12460156  T        0
Si       3.24321613      10.06030324       2.16771962  T        0
Si       6.16289257       2.81098967       6.06863638  T        0
Si      15.88044481      10.15315685       2.21208871  T        0
Al      11.15200915      10.13505187       3.91863657  T        0
Si      17.54116755       2.82034463      -0.05367295  T        0
Si       7.82751629      10.14215142       3.78487445  T        0
Al      11.28887816       3.96098819       3.65050748  T        0
Si       7.83577951       4.21840934       3.72815974  T        0
Si      14.83792123       7.11598242       6.09890095  T        0
Si       4.36387461       7.09168006       6.10846051  T        0
Si       4.30019878       7.14470284       1.43352683  T        0
Si      14.83215553       7.24325733       1.48691836  T        0
Si      12.57339780       7.08409139       3.79668718  T        0
Si       6.52938327       7.18613176       3.75695368  T        0
O       19.15159688       3.10358660      -0.27852027  T        0
O        6.68757604       3.17810339       7.58249204  T        0
O       12.48537514       3.24507342       7.59104590  T        0
O        6.61198390      11.00660431       7.59191497  T        0
O       12.42099635      11.08753717       7.60081539  T        0
O       14.18320949       7.21148793       7.60428297  T        0
O        4.98845486       7.08679519       7.62947124  T        0
O       15.80511596       8.40169270      -2.15037861  T        0
O       15.44809468       5.81085115      -1.99676464  T        0
O       12.84089919       1.21123285      -2.26869464  T        0
O       16.73647527       3.53232742      -1.31119404  T        0
O       11.57289858       3.54099937      -2.39936934  T        0
O       16.44255972       4.15490157      -3.87935874  T        0
O       14.29563287       3.46481556      -2.47935277  T        0
O       13.23960756       7.43475754      -2.38349078  T        0
Si      15.73317868       4.23756861      -2.39324922  T        0
Si      12.93455558       2.80481861      -1.84895180  T        0
Si      14.72377520       7.23617836      -1.68799830  T        0
H        5.61083456       0.52083913       2.07985367  F        0
H       13.50938118       0.51971906       2.07492992  F        0
H        5.61112307      13.75835362       2.07975607  F        0
H       13.50958039      13.75682243       2.07498241  F        0
H       13.51084140      13.75504172       5.44776650  F        0
H        5.62495998      13.75277707       5.44935724  F        0
H       13.50975252       0.52161770       5.44778410  F        0
H        5.62509051       0.52255101       5.44942550  F        0
H       17.28974254      11.12548174       7.01862795  F        0
H        1.83343022      11.12554006       7.01950242  F        0
H       17.28979000       3.14560285       7.02339196  F        0
H        1.81954193       3.15353441       6.98813474  F        0
H        1.83183800       3.14857954       0.53722786  F        0
H        1.83154049      11.12909684       0.54034962  F        0
H       17.29120144      11.12876736       0.54010345  F        0
H        6.35952436       2.97904956      -0.93427223  F        0
H        6.36236324      11.29726414      -0.93275871  F        0
H       12.76174962      11.29928001      -0.93393629  F        0
H       16.56036088       0.51548555      -0.00076213  F        0
H        4.51175007       7.13509558      -0.92932085  F        0
H       20.08726577       2.93486642      -0.00052988  F        0
H        6.35949513       2.97597070       8.47938261  F        0
H       12.76321398       2.97604733       8.47995589  F        0
H        6.35946036      11.30224636       8.48133548  F        0
H       12.76333233      11.30075111       8.47967776  F        0
H       14.61405599       7.13800201       8.47661577  F        0
H        4.50898861       7.14016697       8.47499567  F        0
H       15.75671561       9.37610020      -2.09181162  F        0
H       13.50975252       0.52161770      -2.09871590  F        0
H       11.39412799       3.98861071      -3.24188863  F        0
H       15.92661844       4.15901570      -4.70770176  F        0
H       12.88191441       7.13773895      -3.23957932  F        0
Fe      11.54559781       8.60871416       1.56766533  T        0
Fe       9.69023293       6.27469239       2.82124288  T        1
O       10.65770455       6.95877449       0.97648732  T        2
O        9.56333434       7.80612258       1.55805609  T        3
