141
Lattice="20.102 0.0 0.0 0.0 19.731 0.0 0.0 0.0 13.253" Properties=species:S:1:pos:R:3:move_mask:L:1:tags:I:1 i=77 E=-3472.0240129048 regions="_JSON [\"Active\"]" n_terminators=34 energy=-947.1854011277017 pbc="F F F"
O       10.16533433       8.28413656       9.31101853  T        0
O       10.00830184      18.14815885       3.82979103  T        0
O        0.03481615       8.18922581      10.53264328  T        0
O       10.04210061      11.42346037       3.70088763  T        0
O        2.12073582      10.84152948       3.89539731  T        0
O        7.82710246       8.50796876      10.55117748  T        0
O        2.26369328      18.26724049       3.96152774  T        0
O        7.83952568       7.07584159       8.36672913  T        0
O        8.26738574       9.75758381       8.23285801  T        0
O        3.68846737      10.56059536       5.90030658  T        0
O        6.41377929       8.51040246      12.79831172  T        0
O        3.77832890      19.04536857       5.97569366  T        0
O        5.88711897      19.13020741      10.86915410  T        0
O        4.00088539       8.81532236       3.85152587  T        0
O        6.29148291      10.63106143      11.09795099  T        0
O        4.80772026      11.22986000       3.51108537  T        0
O        5.20624657       8.33519874      10.37650297  T        0
O        4.91696388      18.69355208       3.62088298  T        0
O        4.42981159      12.35929992       7.78849869  T        0
O        4.41807625      17.48406503       8.04558536  T        0
O        6.11731960      10.60085895       6.84577131  T        0
O        6.12546057      19.32611405       7.23726222  T        0
O        4.09697949       9.78400942       8.42857951  T        0
O        5.90092434      10.15039424       1.24178796  T        0
O        3.81129924      20.21434437       8.30645303  T        0
O        7.73541529      12.36453817       7.84864789  T        0
O        7.76302818      17.34011048       7.75973027  T        0
O        8.51202867      10.78388130       5.78443184  T        0
O        1.44925923       8.79370648      12.68053123  T        0
O        8.31660678      19.06485488       5.76212541  T        0
O       11.52238383       8.75716494       7.20530513  T        0
O        7.45408308      10.95494228       3.34010301  T        0
O        2.58570997       8.53286924      10.20758214  T        0
O        7.50278342      18.61019091       3.27556376  T        0
O       12.86604860       8.11952494       9.48627492  T        0
O        1.65926968      18.97617871      10.26865743  T        0
O        9.20400095       8.93155413       3.92244006  T        0
O        1.04636680      10.66859398      10.73697120  T        0
O       11.68650696      10.51881930       9.31928462  T        0
O       11.99475189      19.02609096       9.48460521  T        0
O        6.19820907      12.69252298       1.75760186  T        0
O        3.85228401       7.10422586       8.35781307  T        0
O        6.01658148      16.90396274       1.89734119  T        0
O       10.18750867      16.98708610       9.39701259  T        0
O       10.10337224      12.66098867       8.99024187  T        0
O        7.42986748      16.92389629      10.46163659  T        0
O        7.91720872      12.64509757      10.52579359  T        0
O        8.37049851      14.73960455       8.84816535  T        0
O        6.16952384      17.18444830      12.77890341  T        0
O        6.40713312      12.65873074      12.77306400  T        0
O        4.70828645      16.85421092      10.60279948  T        0
O        5.29256664      12.99037081      10.36157603  T        0
O        1.60218503      16.99293017      12.16989086  T        0
O        1.47089925      12.59506545      12.44535824  T        0
O       12.35869803      12.27373876       7.52582425  T        0
O       11.78956819      17.48681938       7.29084498  T        0
O        2.22967998      16.63890986       9.59470954  T        0
O        2.42194033      12.82763007       9.92512537  T        0
O       12.38636903      12.95149706      10.21641403  T        0
O       12.88074750      16.48846250       9.45531556  T        0
O        4.13099512      14.97784896       8.75121716  T        0
Si       8.54754808       8.37899567       9.09269398  T        0
Si       3.64977853      10.37697627       4.27402878  T        0
Si       6.42226151       9.02042093      11.23195770  T        0
Si       3.55786026      19.19663837       4.35694946  T        0
Si       4.53340929      10.79863023       7.26333498  T        0
Si       4.51855322      19.05079702       7.41719521  T        0
Si       7.69965068      10.82093935       7.17791908  T        0
Si       7.72243919      18.91589563       7.25863068  T        0
Si       8.77178343      10.50013401       4.18303040  T        0
Si       1.30486096       9.08944089      11.06021435  T        0
Si       8.75060419      19.13563872       4.17937942  T        0
Si      11.59612948       8.95154446       8.84117920  T        0
Si       6.09112278      11.22350817       2.47648437  T        0
Si       3.95124910       8.42318369       9.34196968  T        0
Si       6.08163783      18.42393042       2.50260431  T        0
Al       8.54946412      16.47151760       9.20246091  T        0
Si       8.56744315      13.17064347       9.12624657  T        0
Si       6.11585819      17.49829330      11.17201921  T        0
Si       6.44981122      12.25522766      11.18497305  T        0
Si       1.23232153      17.43514326      10.64766069  T        0
Si       1.21738472      12.29821762      10.84870208  T        0
Si      11.64324489      12.12313577       9.01051567  T        0
Si      11.65996255      17.49333832       8.95184230  T        0
Si       3.81732096      16.46598339       9.29753034  T        0
Al       3.95505881      13.28820368       9.30661662  T        0
O        8.61278247      19.85058607       8.27891723  T        0
O        3.19690156      20.74593398       3.91643726  T        0
O        5.91643860      19.45038186       1.22015738  T        0
O        9.20123275      20.67672898       3.78935654  T        0
O        1.66359706      12.74946472      15.13010400  T        0
O        1.30218613      17.19201729      14.77323254  T        0
O        5.83835897      12.63804894      15.41180448  T        0
O        5.87936683      16.95346133      15.45490267  T        0
O        5.53891822      14.85326055      13.99726038  T        0
O        3.76639252      16.88991012      13.77844412  T        0
O        3.86017768      12.83937542      13.56089463  T        0
O        2.05924167      14.86326570      13.67521655  T        0
Si       5.33455380      16.46488175      13.98593210  T        0
Si       5.40916278      13.23205794      13.93531617  T        0
Si       2.20055782      16.47741198      13.59502503  T        0
Si       2.27649917      13.25404846      13.68883071  T        0
O       -0.13469761      13.09058938      10.31842546  T        0
O       -0.36157899      17.18151342      10.32076104  T        0
H       10.94686465      18.29507790       4.04088346  F        0
H       -0.89571882       8.42972886      10.66739018  F        0
H       10.94686465      11.30097846       4.04088346  F        0
H        1.81269882      11.30123319       3.09859993  F        0
H        1.81269882      18.29482316       3.09859994  F        0
H        7.84356088       6.72376138       7.45668423  F        0
H        6.01931354       8.91222751      13.59787507  F        0
H        6.59189912      19.77694965      11.03822749  F        0
H        3.60112680       8.06005012       4.30646574  F        0
H        5.72719027       9.20254625       1.33756862  F        0
H        4.11250309      20.51523557       9.18186357  F        0
H        2.15673527       8.97653516      13.32343298  F        0
H       12.20788617       8.97653229       6.55602501  F        0
H       13.54926599       8.42132791      10.11787432  F        0
H        1.47196681      19.83515306      10.66828905  F        0
H        8.66651872       8.12235896       3.93953912  F        0
H       11.52310955      19.83515307       9.21116341  F        0
H        5.53537813      12.95496052       1.09262639  F        0
H        4.51576461       6.77574371       7.71911054  F        0
H        5.53537813      16.64109584       1.09262638  F        0
H       12.09335996      12.92196996       6.85557054  F        0
H       12.09335995      16.67408638       6.85557055  F        0
H       13.32025657      13.20375310      10.31771692  F        0
H       13.32025658      16.39230324      10.31771692  F        0
H        8.32625906      20.60985804       8.81306681  F        0
H        3.60112680      21.53630199       4.30646574  F        0
H        5.72719026      20.39380587       1.33756863  F        0
H        8.66651872      21.47399316       3.93953912  F        0
H        1.72627225      11.82883678      15.42933042  F        0
H        1.72627225      17.76721957      15.42933043  F        0
H        5.82176689      11.72394931      15.75639142  F        0
H        5.82176689      17.87210706      15.75639142  F        0
H       -1.04605969      13.03623234      10.65268580  F        0
H       -1.04605969      16.55982401      10.65268579  F        0
Fe       6.05213892      16.35075815       7.23174131  T        0
Fe       6.04085301      13.38274817       7.08799717  T        1
O        6.11121916      14.91143825       6.13521842  T        2
