144
Lattice="24.397 0.0 0.0 0.0 24.397 0.0 0.0 0.0 24.397" Properties=species:S:1:pos:R:3:move_mask:L:1:tags:I:1 i=41 E=-6943.8331748197 regions="_JSON [\"Active\"]" n_terminators=34 energy=-970.0789369967748 pbc="F F F"
O       21.62015873       2.60876354       0.08264620  T        0
O       11.92547554       9.64304403       2.70615459  T        0
O       21.82542354       6.22956024       3.48259028  T        0
O       15.67357416       9.73663528       6.23325903  T        0
O       20.86452012      12.39044343       3.66715912  T        0
O       15.55486009       6.27900787       9.72053027  T        0
O       14.84791387       9.80446345      -0.32922167  T        0
O       21.87032762      -0.11419296       2.62062753  T        0
O       18.26181299       9.70039792       3.45863359  T        0
O       21.97469294       3.40987107       6.35628487  T        0
O       18.44357105       3.31087339       9.69246387  T        0
O       23.70352853       1.68887630       1.91958520  T        0
O       13.80680610      11.25097800       1.69962169  T        0
O       22.67730954       5.48746733       7.93683473  T        0
O       22.74067334       8.13495861       5.48134532  T        0
O       17.66480480      10.50585578       7.90142216  T        0
O       20.19605185      10.38274485       5.24174278  T        0
O       23.45199031       4.25236553       4.31544921  T        0
O       18.87060675      14.15225682       4.25476975  T        0
O       16.43102335      11.44492876       4.31593593  T        0
O       17.64549613       7.86729037      10.54691792  T        0
O       19.99392262       5.37829513      10.64653843  T        0
O       12.15589112      12.22543370       3.62171664  T        0
O       20.88462611       5.88663395       6.11874806  T        0
O       18.17698963       8.81549617       5.99783970  T        0
O       21.95758180      12.23966982       6.16049761  T        0
O       20.97322983       0.01021472       0.08569668  T        0
O       24.53533237       2.49686303       6.07383924  T        0
O       24.36668155       6.14933896       2.67597721  T        0
O       18.36026768      12.22009452       2.61849485  T        0
O       14.60818998      12.23213270       6.16933474  T        0
O       18.11796139       5.88764824       8.91205221  T        0
O       22.58217223       4.36745072       1.77044880  T        0
O       13.94345295      10.48845457       4.29459261  T        0
O       20.00123817       7.90178540       4.28055116  T        0
O       16.64123971       7.97686938       8.02817591  T        0
O       22.73150339      10.54686870       4.34162901  T        0
O       20.20369223      14.06786651       1.82231268  T        0
O       16.39812718      10.56580067       1.77366245  T        0
O       22.72067709       1.67185132       4.40944319  T        0
O       20.22810104       4.31850284       8.15635115  T        0
Al      23.25865182       2.95572772       0.86643206  T        0
Si      12.94473716      10.90160455       3.05552068  T        0
Al      21.46178674       7.08438476       5.03948424  T        0
Si      17.00881401       9.24493182       7.05873013  T        0
Si      21.43168567      11.40384533       4.84905534  T        0
Si      15.14530106      10.98311936       0.79351001  T        0
Si      23.18336845       0.75094653       3.12183025  T        0
Si      19.14315928       9.23872217       4.75949392  T        0
Si      21.42320140       4.76495518       7.13117388  T        0
Si      23.67964712       9.29133763       4.84727424  T        0
Si      23.15871626       2.96537568       5.30762694  T        0
Si      17.34640534      11.00559614       3.03069609  T        0
Si      19.19904521       4.73699058       9.34995419  T        0
Si      15.17102166      10.97897190       5.26818750  T        0
Si      19.57389615      13.22121672       3.08319245  T        0
Si      23.08135424       5.24005253       3.07781006  T        0
Si      16.98773809       6.99862872       9.30744285  T        0
O       24.51415808       8.69223243       3.54568992  T        0
O       28.01212227       8.84530739       0.17114837  T        0
O       28.88115561       6.76372957       1.74371331  T        0
O       26.20686767       6.73007943       4.39604953  T        0
O       24.75349996       9.90212714       5.94050309  T        0
O       26.35269385       7.73658594       1.86265530  T        0
Si      27.62500343       7.40293461       0.88348052  T        0
Si      25.37379965       7.36449278       3.11797432  T        0
O       28.01240657       5.92998757      -2.80612031  T        0
O       24.67398569       2.39946392      -2.75704671  T        0
O       26.21389065       1.72263797      -0.64773032  T        0
O       28.92816071       4.39110070      -0.71031330  T        0
O       27.22393233       6.28152892      -0.23429625  T        0
O       24.32094711      -0.18274167      -3.52736605  T        0
O       26.44933085       4.17055738      -1.80554805  T        0
Si      27.64797117       5.18964607      -1.37771444  T        0
Si      25.41833783       2.96851024      -1.39044982  T        0
O       24.59200466      -2.69265624       2.39590328  T        0
O       26.28336615      -0.64830186       1.83151989  T        0
O       24.41460748      -3.68228285      -0.11819625  T        0
O       26.36587958      -1.99529314       4.23464418  T        0
Si      25.41708146      -1.40612298       3.01802204  T        0
O       18.12471224       2.37794460      -3.59720685  T        0
O       20.82348793       2.41006318      -6.24368604  T        0
O       20.09278176       0.71926822      -4.32643930  T        0
O       22.63964072       0.97259667      -1.75851242  T        0
O       18.87011386       1.85660769      -8.06289500  T        0
O       16.30007323       1.87463461      -5.54537694  T        0
O       24.34274331       3.50514901      -0.33101636  T        0
O       15.65998894      12.37361579       0.08566404  T        0
O       18.29259070      -0.10206503      -2.47423539  T        0
O       21.95486376      -0.06688265      -6.13825054  T        0
O       18.33348906       3.44817392      -6.06795251  T        0
O       20.03454243       1.67958017      -1.82280843  T        0
O       22.60022755       1.66815535      -4.32556432  T        0
O       20.14946550       4.30662560      -7.90871370  T        0
O       16.49689341       4.31288418      -4.25612514  T        0
Si      19.11863019       1.17726231      -3.09082641  T        0
Si      21.35259544       1.19280194      -5.27585007  T        0
Si      23.58275230       1.22129748      -3.08881965  T        0
Si      19.54425878       3.01142063      -7.08943071  T        0
Si      21.30526420       1.28124637      -0.87548658  T        0
Si      17.29646109       3.01161354      -4.87451003  T        0
O       22.51040149      -2.01539046       0.81788004  T        0
O       24.36699486      -0.28765074       3.58017471  T        0
O       20.00605493      -1.77284965       1.87967748  T        0
O       22.74285452      -4.52952716       1.76739245  T        0
Si      21.34671763      -0.98640932       1.34224747  T        0
Si      23.56710742      -3.20979314       1.21910182  T        0
H       11.67127885       9.33842242       1.81195952  F        0
H       15.43757911       5.57209275      10.38640946  F        0
H       14.01041460       9.33842077      -0.52721165  F        0
H       17.77043311       3.23924387      10.38640412  F        0
H       23.12591797       5.02704618       8.65412107  F        0
H       17.22544067      10.92750153       8.65411313  F        0
H       19.36965547      14.75328399       4.82834093  F        0
H       17.22544070       8.65411150      10.92750362  F        0
H       20.85245744       5.02708867      10.92752556  F        0
H       11.39908935      12.70105073       3.24464026  F        0
H       21.54216027      12.99764967       6.60187561  F        0
H       24.89951425       2.85451703       6.89840128  F        0
H       15.05290853      12.70105704       6.89848521  F        0
H       19.78591980      14.73191782       1.24430354  F        0
H       28.68412771       8.95914275      -0.52719976  F        0
H       29.22534432       7.17131743       2.55494170  F        0
H       26.95194123       7.17131746       4.82834527  F        0
H       25.19630608       9.34383456       6.60185911  F        0
H       28.68420928       6.62630035      -2.86021198  F        0
H       26.95192867       1.27083937      -1.07240246  F        0
H       29.22533941       3.54426653      -1.07238230  F        0
H       25.19622735      -0.50276655      -3.24494277  F        0
H       26.95192866      -1.07240650       1.27083969  F        0
H       25.19622853      -3.24494603      -0.50276481  F        0
H       26.93057847      -1.48866524       4.85486109  F        0
H       19.36968740       1.27081557      -8.65438303  F        0
H       15.74261410       1.27081536      -5.02730892  F        0
H       15.44299305      12.70103244      -0.79954860  F        0
H       17.49833355      -0.50278089      -2.85477948  F        0
H       21.54221652      -0.50278066      -6.89866328  F        0
H       19.78593015       4.85484827      -8.63303166  F        0
H       15.76396555       4.85484859      -4.61106623  F        0
H       19.54187317      -2.53384464       1.48839915  F        0
H       21.86315519      -4.85512672       1.48839915  F        0
Fe      19.96952978       6.66831264       2.68292473  T        0
Fe      20.71654687       4.21231904       0.86281478  T        1
O       19.55549658       5.53503831       1.32193538  T        2
