136
Lattice="20.102 0.0 0.0 0.0 19.731 0.0 0.0 0.0 13.253" Properties=species:S:1:pos:R:3:move_mask:L:1:tags:I:1 i=77 E=-3472.0240129048 regions="_JSON [\"Active\"]" n_terminators=30 energy=-930.6357104617069 pbc="F F F"
O       10.15358355       1.24780725       9.62595701  T        0
O       10.15162353       8.44650218       9.51196023  T        0
O       10.03503787      11.49050525       3.75538546  T        0
O        7.69520896       0.91334951      10.48882562  T        0
O        2.26723652      11.09666516       3.85680747  T        0
O        7.64853616       8.68260349      10.39770188  T        0
O        8.01813637       2.38861899       8.38258463  T        0
O        2.28080477      12.49760696       1.66247700  T        0
O        8.07901298       7.38218377       8.11288854  T        0
O        8.53403770      -0.29494237       8.20087017  T        0
O        1.85556762       9.78522127       1.67151091  T        0
O        8.42970561      10.04087019       8.23080308  T        0
O        6.60527654       1.17244788      12.85599513  T        0
O        3.66611297      11.13211959       6.11501161  T        0
O        6.54439254       8.64776502      12.81519343  T        0
O        3.92719206       9.03723919       4.51799263  T        0
O        6.69328464      10.96389609      11.55274696  T        0
O        4.09725127       0.69396773       4.28403749  T        0
O        5.02758530       0.75596323      10.70665186  T        0
O        4.94256100      11.43381194       3.82934049  T        0
O        5.01018039       9.04024661      10.63093231  T        0
O        5.77870135       2.10274783       1.35471226  T        0
O        4.64927990      12.67325530       8.12425462  T        0
O        5.96250326       7.35668896       1.10215951  T        0
O        3.72808858       0.53410772       0.67074120  T        0
O        6.08076060      10.69382976       7.17612581  T        0
O        3.81315525       8.64192439       0.18491794  T        0
O        6.00279436      -0.61410478       1.59462340  T        0
O        3.82097491      10.18011772       8.57570670  T        0
O        5.46281692       9.86584449       1.87077858  T        0
O        1.82483734       2.40547201       1.11983533  T        0
O        7.95556084      12.62294434       7.61676430  T        0
O        1.65911167       7.25361681       0.91365019  T        0
O       11.96975398       7.38377393       5.77910942  T        0
O       12.71568159       2.44472234       5.39817366  T        0
O        8.27906555      10.89309764       5.72178073  T        0
O        2.54563765       1.58130496      10.04846820  T        0
O        7.51670038      10.94352446       3.19339543  T        0
O        2.49116260       8.29656829       9.98187322  T        0
O        9.12171153       9.00839681       4.11384963  T        0
O        9.25024996       0.55475149       4.28369292  T        0
O        4.61742512       2.16053977       8.52251923  T        0
O        6.20150135      12.51470745       1.64514146  T        0
O        4.46124478       7.59793247       8.41818588  T        0
O       -0.06348647       6.61313288       2.91622852  T        0
O       -0.06535074       3.23510159       2.94274638  T        0
O       10.43442412       2.86570290       3.98911671  T        0
O       10.43216351       6.78480631       3.62391027  T        0
O        2.55004890       7.09892952       3.37633802  T        0
O        2.44607183       2.77118114       3.70340272  T        0
O       12.80248019       3.50575891       2.87564290  T        0
O       13.14042914       7.11101572       3.45981258  T        0
O        1.81284987       4.87019851       2.16918550  T        0
O       11.94567531       4.95495350       4.78035079  T        0
O        3.79486441       6.52455509       5.66093525  T        0
O        3.67340588       2.67408888       6.08607486  T        0
O        5.23185341       6.81726656       3.62751703  T        0
O        5.06905012       3.24432286       3.95853027  T        0
O        4.20669401       4.71908497       7.75479816  T        0
O        6.22281999       6.22225474       6.47804753  T        0
O        6.16663374       3.31485529       6.66655600  T        0
O        8.27716775       4.82619299       7.32217635  T        0
O        8.60603182       6.80651120       5.54793592  T        0
O        8.59050083       2.62767074       5.83240669  T        0
O        7.82633271       7.00388893       2.99797575  T        0
O        7.82725691       2.67175763       3.29610794  T        0
O        6.35219840       4.91210419       2.29368829  T        0
Si       8.59871421       1.06077755       9.14682879  T        0
Si       1.52946852      11.21499216       2.38784322  T        0
Si       8.58437035       8.63816967       9.05622626  T        0
Si       6.46029367       0.40807844      11.41648496  T        0
Si       3.68988745      10.67259579       4.55454971  T        0
Si       6.45899464       9.34135667      11.32320304  T        0
Si       5.37177293       0.66478085       0.73346511  T        0
Si       4.54507975      11.15683485       7.49363101  T        0
Si       5.37647466       8.82492303       0.63628130  T        0
Si       2.13644901       0.84867667       0.66264425  T        0
Si       7.67615003      11.06155681       7.20667304  T        0
Si       2.20756816       8.73946615       0.48414318  T        0
Si       8.73761102      10.58545968       4.20037769  T        0
Si       3.97841958       1.01880759       9.49407386  T        0
Si       6.02156893      11.21076398       2.61860435  T        0
Si       3.95856225       8.76415904       9.40473021  T        0
Si       1.46328665       6.45415642       2.33509754  T        0
Si       1.49722876       3.28763414       2.46019671  T        0
Si      11.94919790       3.39337765       4.28070774  T        0
Si      11.88779057       6.53391278       4.36402355  T        0
Si       3.82142206       7.43530244       4.30976061  T        0
Si       3.78777416       2.31604363       4.49128561  T        0
Al       4.57497645       6.35488262       7.26379693  T        0
Si       4.62317645       3.23566877       7.31311481  T        0
Si       7.82144572       6.34268342       6.89337199  T        0
Si       7.78311246       3.28707051       7.05724664  T        0
Si       8.98996197       7.39661957       4.07505923  T        0
Si       8.98109208       2.18606800       4.29717620  T        0
Si       6.38028053       6.51094903       2.43568104  T        0
Al       6.32368633       3.16979173       2.59590052  T        0
O        5.80765869       0.43731327      -0.84337213  T        0
O        6.26014606       9.53678469      -0.53794840  T        0
O        1.38882203       0.51045506      -0.76610430  T        0
O        1.36418207       9.34487923      -0.78451571  T        0
O        1.36637383      -0.05347177       1.82339269  T        0
O        6.54506143      -1.21521705      11.69524660  T        0
O        3.70513227      -0.38159220       8.65539286  T        0
O       -0.10303546      11.45608942       2.50749847  T        0
H       10.95532306       1.01526715       9.12727255  F        0
H       10.95532307       8.85008497       9.12727255  F        0
H       10.94686465      11.30097846       4.04088346  F        0
H        2.20758188      13.00694286       0.83020008  F        0
H        7.75918006      -0.57216837       7.68608506  F        0
H        6.01931354       0.95312461      13.59787507  F        0
H        6.01931354       8.91222751      13.59787507  F        0
H        6.45001595      11.67065412      10.93294989  F        0
H        3.45924363      -0.04624542       4.41174334  F        0
H        4.03182275      12.92715973       8.82439874  F        0
H        5.93863966      -0.78453132       2.55537942  F        0
H        8.21123678      12.90527891       8.50458507  F        0
H       12.40451339       8.25291401       5.80455660  F        0
H       12.40451338       1.61243810       5.80455660  F        0
H        1.92726146       1.06764952      10.59110356  F        0
H        1.92726146       8.79770260      10.59110356  F        0
H        8.57917594      -0.10444883       4.04180490  F        0
H        5.53537813      12.95496052       1.09262639  F        0
H       -0.70903753       7.30425969       2.68512250  F        0
H       -0.70903753       2.56109242       2.68512249  F        0
H       13.35632229       2.80449888       2.51220488  F        0
H       13.35632228       7.06085325       2.51220488  F        0
H        6.58577873       0.71565665      -1.35751145  F        0
H        6.58577874       9.14969547      -1.35751146  F        0
H        1.54448592       0.71940466      -1.70877227  F        0
H        1.54448592       9.14594745      -1.70877228  F        0
H        1.72488369      -0.87915380       2.18658266  F        0
H        6.45001594      -1.80559776      10.93294989  F        0
H        4.32395248      -0.66310163       7.96405278  F        0
H       -0.90389482      10.88061926       2.50078840  F        0
Fe       5.46261270       5.04282592       4.91394763  T        1
