135
Lattice="24.397 0.0 0.0 0.0 24.397 0.0 0.0 0.0 24.397" Properties=species:S:1:pos:R:3:move_mask:L:1:tags:I:1 i=41 E=-6943.8331748197 regions="_JSON [\"Active\"]" n_terminators=24 energy=-948.8162623017608 pbc="F F F"
O        9.59356347      14.69079679      -0.25665633  T        0
O       12.26115413       9.49953489       2.59202829  T        0
O       14.83685525      20.96511571       6.06173640  T        0
O       12.34879536      15.87092552       8.72237825  T        0
O        9.77840015      18.44653115       3.69626934  T        0
O       15.63312633       9.44677279       6.18000093  T        0
O       18.63820447      14.89548033       8.59523142  T        0
O       18.57775818      20.83656555       2.69875060  T        0
O       14.82825743       9.53993116       0.01335851  T        0
O        9.62069806      12.09558520       2.68448800  T        0
O       15.73057948      12.28040628       8.87357536  T        0
O       18.70833145       9.78899733       3.42969667  T        0
O        9.62384078      15.81995008       6.08141555  T        0
O       14.74246340      18.19320691       8.75824939  T        0
O       12.15244015      20.93877719       3.63814829  T        0
O       15.76402087      20.50974942      -0.51851828  T        0
O       11.42575282      13.89682454       1.82661878  T        0
O       14.07563746      11.32161433       1.85577194  T        0
O       13.14171184      20.18920921       7.99053933  T        0
O       10.29425324      17.47418876       8.07613813  T        0
O       10.18001011      20.46519745       5.42361825  T        0
O       16.75914365      19.19868222       1.61441202  T        0
O       10.27276489      10.15547179       0.91903741  T        0
O       11.53852064      16.53954074       4.34795749  T        0
O       14.04946178      18.97327890       4.43720933  T        0
O       14.09070213      16.54924103       6.72140291  T        0
O       16.64408786      11.21295708       4.40589853  T        0
O       16.69248194      13.93214812       6.97732458  T        0
O       12.13171327      12.01029095       3.56215597  T        0
O       12.29800104      21.87234580       6.14732356  T        0
O       12.22730705      18.34882384       9.65929608  T        0
O        8.73501409      18.35239811       6.14798391  T        0
O       18.33122152      18.26222681       3.61355414  T        0
O       12.28930796       8.67721518       0.04620543  T        0
O        8.77959979      12.14703132       0.13650266  T        0
O       12.14736340      14.87956547       6.23629344  T        0
O       12.20342060      18.24987873       2.47494752  T        0
O       15.83022374      18.48609134       6.29964550  T        0
O       18.35294569      15.85535685       6.06533235  T        0
O       18.26306267      12.31305777       2.54570898  T        0
O       14.96715274      12.06714358       6.25950898  T        0
O       10.31201343      16.49945263       1.91595055  T        0
O       14.05435258      10.41418701       4.36076640  T        0
O       14.17239503      22.69400713       7.92324401  T        0
O       10.50651357      16.47537440      10.57860245  T        0
O        7.76702007      20.02387401       4.27156017  T        0
O       10.58506104      22.93484798       4.39840155  T        0
O       16.52631566      20.01659643       4.20340518  T        0
O       16.59834888      10.43561745       1.83840396  T        0
O       10.51992397      13.98688398       4.34351510  T        0
O        7.78473785      16.45338552       7.83943955  T        0
O       14.11396706      20.06051930      10.53319159  T        0
O       14.22416619      20.03530175       1.71373941  T        0
O        7.78490538      10.39337057       1.95722627  T        0
O       16.55557226      16.44319416       7.85965811  T        0
O       14.14256073      14.08281501       7.81971548  T        0
O       10.54926530       7.61513392       1.79971270  T        0
Al      10.81529479      15.19976481       0.84998218  T        0
Si      13.11629685      10.81001280       3.08118301  T        0
Si      13.59257540      21.44522678       7.02872817  T        0
Si      11.32053366      17.04787196       9.27117821  T        0
Si       9.12262431      19.34078964       4.89760594  T        0
Si      17.55779198      19.57203946       3.00257457  T        0
Si      15.31261280      10.83144318       0.90227250  T        0
Si      10.93292835      13.00864271       3.06474208  T        0
Si       9.09559401      17.04228611       7.04750181  T        0
Si      13.54614084      19.22480497       9.24198959  T        0
Si      11.31267368      21.53779738       4.87247976  T        0
Si      15.39849335      19.52254396       0.75356297  T        0
Si       9.10986700      11.20111773       1.41139484  T        0
Si      10.90461695      15.26781787       5.23819362  T        0
Al      13.13948256      19.66881617       3.02678748  T        0
Si      15.34936562      17.44539054       7.44659740  T        0
Si      17.56223091      10.92532161       3.07370069  T        0
Si      15.38955323      13.06750478       7.46660860  T        0
Si      11.33150110       8.98746586       1.33670923  T        0
Si      15.32967997      10.79617670       5.28627780  T        0
Si      17.58531602      15.24652888       7.37827041  T        0
Si      15.32543044      19.63929941       5.23970008  T        0
Si      10.88746365      17.44925101       3.05466716  T        0
Si      13.16146855      15.31206823       7.42648942  T        0
O       14.81107847      12.17468740      -2.62671559  T        0
O       15.65956798      18.32989006      -2.71136419  T        0
O       12.07120430      14.67770776      -2.44747996  T        0
O       18.66491191      15.58283082      -2.52228213  T        0
O       14.12032720      14.02026582      -0.83628737  T        0
O       16.65486867      16.49148958      -1.00399969  T        0
O       13.10108044      10.21184666      -1.94869799  T        0
O       10.08021087      12.84922852      -2.09596348  T        0
O       12.33321633      15.82599090      -0.00386367  T        0
O       15.72363788      12.04874943      -0.10425900  T        0
O       18.35455696      14.64952521       0.02645036  T        0
O       14.86007379      18.12525489      -0.02179493  T        0
O       12.26524658      12.21971943      -3.46089368  T        0
O       16.63379314      13.93460236      -1.77553651  T        0
O       14.06205938      10.47980940      -4.47782359  T        0
O        7.51063317      13.57806255      -1.58803604  T        0
O       14.06848700      16.43945558      -1.89186657  T        0
O       10.51140304      14.00416920      -4.48395583  T        0
O       14.08811583       7.70376477      -1.72265398  T        0
Si      15.33467502      13.03474721      -1.33667297  T        0
Si      15.34229032      17.35410454      -1.43560300  T        0
Si      13.12171123      15.21422648      -1.32714753  T        0
Si      17.59699703      15.18152307      -1.32548643  T        0
Si      13.56616079       9.03354613      -0.90613303  T        0
Si      11.21734452      13.42475722      -3.11111039  T        0
Si       9.00851577      13.35381560      -0.93965289  T        0
Si      13.54405997      11.25867635      -3.12609902  T        0
H       16.48559112       9.33840607       6.62628668  F        0
H       18.82464116      14.01032609       8.95915608  F        0
H       18.82463422      21.15752504       1.81198193  F        0
H       16.48560162      11.67124930       8.95913012  F        0
H       18.82463962       9.33839646       4.28720704  F        0
H       16.48550522      21.15749796      -0.52720744  F        0
H       19.09683476      17.79487503       3.24462109  F        0
H       19.09684364      15.44301376       5.59651532  F        0
H       19.09682945      12.70103459       2.85456062  F        0
H       13.68673605      23.15239550       8.63276462  F        0
H        9.66477675      16.80915558      10.95402362  F        0
H        7.34351903      20.83116256       4.61081863  F        0
H        9.66481601      23.15243056       4.61081458  F        0
H        7.34350493      16.80917637       8.63275504  F        0
H       13.68672539      20.83112809      10.95404502  F        0
H        7.34352333       9.66479174       1.48837704  F        0
H        9.66479163       7.34352337       1.48837704  F        0
H       16.48557283      18.82464187      -2.86023677  F        0
H       18.82464171      16.48557294      -2.86023676  F        0
H       19.09678362      15.05286173       0.50248505  F        0
H       13.68673308       9.66480596      -4.85513656  F        0
H        7.34352146      13.68671965      -2.53387758  F        0
H        9.66480591      13.68673318      -4.85513656  F        0
H       13.68671953       7.34352150      -2.53387758  F        0
Fe      13.50131790      16.78479879       1.39970668  T        0
Fe      13.77419858      16.85009186       4.52091549  T        1
O       14.42902215      16.28173417       2.91067221  T        2
