135
Lattice="20.102 0.0 0.0 0.0 19.731 0.0 0.0 0.0 13.253" Properties=species:S:1:pos:R:3:move_mask:L:1:tags:I:1 i=77 E=-3472.0240129048 regions="_JSON [\"Active\"]" n_terminators=32 energy=-909.4874444372236 pbc="F F F"
O       10.17459129       8.41774097       9.33739712  T        0
O        9.95018651      18.81652095       3.94631213  T        0
O       10.01039503      11.21076333       3.81131200  T        0
O        2.23060693      11.37235174       3.97336711  T        0
O        7.93557722       8.55647562      10.67562732  T        0
O       12.12036086      18.50793293       2.51087425  T        0
O       12.49752569      11.07463699       2.84271534  T        0
O        8.01715264       7.22127453       8.32524901  T        0
O       11.91591991      17.37779496       4.94597190  T        0
O       11.88656205      12.70785858       4.90397291  T        0
O        8.23012408       9.87747368       8.30074575  T        0
O       12.30803565      20.05546615       4.63008618  T        0
O       11.97037237      10.08724148       5.27905648  T        0
O        3.53568136      10.76459016       6.13449946  T        0
O       16.49505590       8.48026858       7.29353014  T        0
O       13.66564247      11.02840348       0.51436149  T        0
O        3.07048495       8.86822577       4.19288584  T        0
O       13.76591107       8.82647000       2.13631966  T        0
O        4.90447181      10.82931914       3.84035657  T        0
O       15.16629467      10.95915579       2.78176979  T        0
O        3.56915942      12.11445931       8.52720784  T        0
O       16.18673830       7.24481895       5.04634279  T        0
O        5.80142549      11.09821047       7.46234710  T        0
O        5.84985147      18.97678775       6.74246085  T        0
O       14.17363426       8.76272033       5.92988550  T        0
O        3.83019288       9.41499016       8.31186205  T        0
O        5.61676235      10.16510622       1.28618013  T        0
O       16.33669501       9.91673438       4.96936753  T        0
O        8.03865643      12.78506156       7.84834995  T        0
O        7.77896827      17.55592772       8.00928209  T        0
O       11.92668618       7.42785321       5.44567173  T        0
O        8.12298503      11.34361400       5.69377917  T        0
O        8.31286437      19.16040155       5.94926524  T        0
O       12.16774306       8.93607604       7.63963366  T        0
O        7.43248530      11.02189621       3.12963848  T        0
O        7.41348608      18.14838328       3.57192345  T        0
O       12.62206790       8.65537888      10.27820908  T        0
O       17.74977941      11.50984767       3.31232709  T        0
O        8.68254178       9.03187676       4.46373380  T        0
O       11.34962542      10.81620070       9.36551421  T        0
O       12.04787665      19.05906824       9.47208778  T        0
O        5.61129367      12.68427729       2.02731106  T        0
O       16.18297695      17.06740168       4.57371440  T        0
O       15.91367842      12.55703234       4.79394418  T        0
O        9.99171104      17.31173479       9.47099451  T        0
O        9.80824422      12.95430950       9.83669422  T        0
O        9.82975797       6.65831398       3.99227585  T        0
O        7.70532152      17.04820012      10.66251861  T        0
O        7.15538211      13.45484225      10.33534509  T        0
O       12.23159976       6.75559552       2.85927497  T        0
O        8.51273984      15.14929751       8.88186913  T        0
O       11.76106617       4.91244400       4.81527206  T        0
O       16.78472762      12.70832701       7.32526242  T        0
O       13.48570059       6.67741352       0.54158629  T        0
O       16.63816467      17.22864732       7.22077505  T        0
O       14.88149525       6.49752689       2.83190221  T        0
O       15.94092529      14.90195559       6.01129345  T        0
O        5.87320541       5.88795157       7.28697707  T        0
O       14.20442372      13.01734321       6.79791424  T        0
O       14.15384238      16.88082812       6.37019044  T        0
O        8.27316574       4.79835536       7.31648562  T        0
O       12.25671448      15.03715122       5.96782681  T        0
O        7.74567960       6.88294443       5.67685027  T        0
O       11.49725008      12.94027332       7.78712242  T        0
O       11.83293272      17.15745364       7.58866064  T        0
O        7.36072770       7.29719152       3.05114406  T        0
O       12.35422054      13.11165297      10.39660723  T        0
O       17.43943998       6.97234177       2.66541160  T        0
O       12.36713652      16.48865852      10.17039975  T        0
O       16.60043697       4.79898564       4.04760266  T        0
Si       8.55458460       8.54384725       9.14287366  T        0
Si      11.55994501      18.70514419       4.04005024  T        0
Si      11.60441197      11.23550441       4.19461736  T        0
Si       3.46156210      10.44139618       4.53882536  T        0
Si      13.79698607      10.45410167       2.04915261  T        0
Si       4.22059099      10.87763940       7.62494961  T        0
Si      15.79487850       8.63011366       5.81478010  T        0
Al       7.50069972      11.10525206       7.37897305  T        0
Si       7.39837376      18.98249008       7.28927046  T        0
Si      12.55912683       8.78822520       6.07834964  T        0
Si       8.53863459      10.63430916       4.25733844  T        0
Si       8.40523481      19.22027353       4.30733215  T        0
Si      11.57914845       9.21841784       9.14206353  T        0
Si       5.88577185      11.15755365       2.57372368  T        0
Si      16.27549252      11.20577389       3.96200998  T        0
Si       8.48197997      16.74999415       9.24656189  T        0
Si       8.40686545      13.56126011       9.27096936  T        0
Si      11.43589428       6.42237189       4.25590266  T        0
Si      13.60729380       7.20286942       2.09710606  T        0
Si      15.69313458      13.29844823       6.23161762  T        0
Si      15.72486815      16.51130482       6.04987245  T        0
Si       7.48207164       6.23030251       7.16006969  T        0
Al      12.55058690      13.31911053       6.48541844  T        0
Si      12.55987221      16.62926317       6.24342119  T        0
Si       8.42547275       7.43311729       4.31149053  T        0
Si      11.29719754      12.44633336       9.31770180  T        0
Si      11.57449060      17.50635043       9.16871299  T        0
Si      16.27413953       6.36666966       3.66828630  T        0
O        7.55996316      20.26308670       8.32093541  T        0
O        8.06240151      20.73524803       3.75572395  T        0
H        1.81269882      11.30123319       3.09859993  F        0
H        7.07153747       8.87866318      10.98534327  F        0
H       13.03074803      18.74401529       2.26762503  F        0
H       12.34310542      20.30287261       5.56688324  F        0
H       16.63692148       9.14969546       7.98396390  F        0
H       14.08297195      10.81847671      -0.34490677  F        0
H        3.60112680       8.06005012       4.30646574  F        0
H        4.03182275      12.92715973       8.82439874  F        0
H        5.06295559      18.75104696       7.26028496  F        0
H        4.11249823       9.08086468       9.18193973  F        0
H        5.72719027       9.20254625       1.33756862  F        0
H        6.55301950      18.28668004       3.13509397  F        0
H       13.54926599       8.42132791      10.11787432  F        0
H       18.17502404      10.93300163       2.66186473  F        0
H       11.52310955      19.83515307       9.21116341  F        0
H        5.53537813      12.95496052       1.09262639  F        0
H       15.87290964      17.87210703       4.12309272  F        0
H        6.74596320      16.92620537      10.74076342  F        0
H        6.74596321      12.66985099      10.74076342  F        0
H       11.61525895       4.01919395       4.45233654  F        0
H       16.41758072      12.40218664       8.16986141  F        0
H       14.23421140       6.74908840      -0.07819396  F        0
H       16.41758072      17.19386972       8.16986141  F        0
H        5.18772305       6.48136951       6.94399129  F        0
H        7.92514400       4.01763560       6.85279547  F        0
H        6.78202892       6.52695113       2.93525138  F        0
H       13.32025657      13.20375310      10.31771692  F        0
H       18.37141860       7.12308619       2.89672377  F        0
H       13.32025658      16.39230324      10.31771692  F        0
H       16.04230867       4.00312851       3.96597142  F        0
H        8.32625906      20.60985804       8.81306681  F        0
H        8.66651872      21.47399316       3.93953912  F        0
Fe       8.42055210      13.39733830       5.97579832  T        0
Fe      10.82645174      14.49570060       4.64331764  T        1
O        9.01285571      14.57481100       4.72361515  T        2
