136
Lattice="20.102 0.0 0.0 0.0 19.731 0.0 0.0 0.0 13.253" Properties=species:S:1:pos:R:3:move_mask:L:1:tags:I:1 i=77 E=-3472.0240129048 regions="_JSON [\"Active\"]" n_terminators=34 energy=-903.9008760166175 pbc="F F F"
O       11.84291891      16.80473768       4.58637136  T        0
O       12.60917742      11.98663287       4.92397796  T        0
O        3.44079366      18.38059672       6.00209196  T        0
O        6.16649808      18.79076751      11.04560775  T        0
O        6.65277078      10.65348720      11.55115156  T        0
O        3.57601584      11.95293979       8.10348387  T        0
O        4.05075665      16.94690479       8.05191913  T        0
O       14.50130458      17.25416953      11.80764545  T        0
O       13.99354987      12.42539209      12.07306960  T        0
O        5.92297827      18.63168099       7.04320448  T        0
O       16.13262647      18.87654723      13.23280992  T        0
O        3.85030323      19.55264922       8.44244786  T        0
O       14.31378742      19.86054968      11.46282041  T        0
O        7.58214264      11.97571866       8.27380813  T        0
O        7.92577837      17.12038334       7.85737170  T        0
O        8.18337615      18.35883757       5.56774297  T        0
O       11.94762961      10.60147518       9.44810671  T        0
O       11.55127433      18.99685188       8.90309041  T        0
O       10.01217328      16.54232324       9.41313880  T        0
O       10.03925061      12.54171469       9.38743212  T        0
O        7.50849238      16.24627989      10.39037070  T        0
O        7.72830606      13.01358154      10.60499350  T        0
O        8.44963224      14.56199159       8.57160386  T        0
O        6.28720248      16.35360793      12.77773455  T        0
O        6.17751472      13.13771229      12.55724947  T        0
O        4.59547468      16.40727241      10.60428711  T        0
O        5.18514735      12.48642685      10.14573576  T        0
O       15.39507796      12.40537697       9.90519608  T        0
O       14.87943849      16.76526627       9.11557703  T        0
O       14.19425684      12.91537077       6.85971619  T        0
O       14.24635421      16.34077448       5.60519305  T        0
O       12.26896777      14.51549822       5.77603935  T        0
O       11.69576436      12.42584602       7.39591738  T        0
O       12.11391426      16.69319485       7.29079297  T        0
O        2.03577867      16.24986007       9.79946304  T        0
O        2.66865264      12.61430202      10.58124883  T        0
O       12.66254633      13.06671850       9.81096105  T        0
O       12.48553883      16.52459479      10.18347625  T        0
O        3.77947314      14.47996325       8.95217263  T        0
O       14.36018522      14.76344057      10.85539506  T        0
Si       4.32955389      18.40945721       7.38249974  T        0
Si      14.62977838      18.71252091      12.57231326  T        0
Si       7.54972113      18.52253882       7.07786989  T        0
Si       8.45111536      16.15018683       9.04009186  T        0
Si       8.51007123      13.03066459       9.13333516  T        0
Al       6.08447365      17.09478271      11.13532945  T        0
Si       6.38498243      12.22208037      11.17658273  T        0
Si      12.67387232      13.00151001       6.21468955  T        0
Si      12.62021630      16.12576811       5.87536593  T        0
Si      11.58665768      12.13798144       8.99833646  T        0
Al      11.55327455      17.29152741       8.79211185  T        0
Si       3.62746415      16.06696230       9.36771123  T        0
Si       3.78976830      12.92341863       9.41625532  T        0
Si      14.11361957      13.15468395      10.60434962  T        0
Si      14.10115698      16.33854512      10.51194294  T        0
O       14.08862176      20.69621041      15.80498149  T        0
O        5.52530821      22.50484462      14.65982717  T        0
O        3.96281226      20.77347294      13.27883666  T        0
O        5.80603219      19.88027758      15.09181635  T        0
O        9.24081949      20.70012865      17.18476848  T        0
Si       5.44662833      21.01283660      13.95299680  T        0
O       10.05490071      21.20796795       9.16234582  T        0
O        7.70895847      20.80986558      10.31759345  T        0
O        7.73208265      22.43468293       8.31545845  T        0
O        8.19470939      19.80507346       7.85104992  T        0
O        6.39077525      20.93303870      12.61796478  T        0
O        5.05974037      21.10225954      10.24244539  T        0
O       15.12682198      20.90816163       9.07974154  T        0
O       11.83050812      21.16549617       7.26285309  T        0
O        2.35420240      21.28534698       9.86623954  T        0
O       12.66539323      21.22871773       9.84805110  T        0
O        3.84935901      22.16949521       7.98753834  T        0
O       14.64115866      22.52136731      11.22523003  T        0
Si       8.44801448      21.06215192       8.89067084  T        0
Si       6.30583278      20.39340846      11.05621781  T        0
Si      11.54469607      20.60409969       8.79631266  T        0
Si       3.82529146      21.02489085       9.16887407  T        0
Si      14.19587137      21.13476695      10.43149651  T        0
O       10.01077008      18.30001563      17.63822031  T        0
O       12.19646643      18.75285146      16.18111841  T        0
O       12.17471934      16.83909546      18.11057784  T        0
O       12.22780454      19.34162060      18.87283075  T        0
O       13.60906432      18.84498204      13.85381494  T        0
O        5.01134559      18.75015883      17.46636508  T        0
O       14.70653944      18.12032353      16.20376733  T        0
O        8.17914912      19.49463265      19.28724064  T        0
O        7.48872011      18.65524083      16.78746275  T        0
O        6.07310610      12.09708301      14.89778801  T        0
O        5.80424283      17.22820987      15.31260094  T        0
O        5.33200342      14.69640312      14.54582059  T        0
O        3.73581600      16.79825749      13.83436449  T        0
O        3.71575786      12.68905330      13.73802294  T        0
Si      11.65462567      18.34147430      17.68858882  T        0
Si      13.63814813      19.13139355      15.48675080  T        0
Si       8.68878447      19.24777434      17.73701017  T        0
Si       5.98716979      18.63641223      16.14244923  T        0
Si       5.28262727      16.28209366      14.09304011  T        0
Si       5.26423445      13.16950212      13.97226251  T        0
H       11.77741499      17.76721957       4.45015374  F        0
H       11.77741500      11.82883679       4.45015372  F        0
H        3.46536401      19.01504758       5.26900440  F        0
H        6.59189033       9.81912404      11.03827922  F        0
H        4.35449611      11.55048736       7.68308178  F        0
H       14.40563885      11.55048737      12.19637067  F        0
H       16.97340650      18.78964577      12.75613404  F        0
H        7.69777211      11.47779022       7.44841170  F        0
H        8.50665683      19.01129957       4.91774358  F        0
H       11.52310774       9.76092419       9.21110646  F        0
H       15.75661379      12.42699387       9.00459924  F        0
H       15.75661380      17.16906248       9.00459925  F        0
H       14.91456245      13.24933472       6.30897701  F        0
H       14.91456244      16.34672163       6.30897701  F        0
H        1.73086688      16.98843832      10.35624453  F        0
H        1.73086689      12.60761804      10.35624453  F        0
H       13.65226955      21.53630200      15.57301841  F        0
H        6.01932000      22.79280763      15.45091456  F        0
H        3.12887898      20.67205847      13.74983427  F        0
H        8.66651872      21.47399316      17.19253912  F        0
H        7.84356087      22.87259074       7.45668424  F        0
H       16.04398914      20.66501564       8.84225549  F        0
H       12.20788616      20.61981982       6.55602502  F        0
H        1.92726146      20.79864952      10.59110356  F        0
H        4.51576461      22.82060840       7.71911054  F        0
H       14.56690736      22.82060840      12.16034191  F        0
H       12.25872462      16.58911350      19.04928408  F        0
H       12.34310542      20.30287261      18.81988324  F        0
H        4.05829635      18.79668859      17.66371282  F        0
H       15.58095514      18.39037197      16.50370227  F        0
H        7.89439933      18.84188441      19.94994329  F        0
H        5.82176689      11.72394931      15.75639142  F        0
H        2.98936131      16.34896307      13.39901228  F        0
H        2.98936131      13.24709329      13.39901228  F        0
Fe       7.76367810      14.88728600      12.07772435  T        0
Fe      10.88725330      15.73042920      11.15155371  T        1
O        9.59008592      15.68540900      12.72211591  T        2
O        9.76722526      14.33172140      12.08611761  T        3
