138
Lattice="24.397 0.0 0.0 0.0 24.397 0.0 0.0 0.0 24.397" Properties=species:S:1:pos:R:3:move_mask:L:1:tags:I:1 i=41 E=-6943.8331748197 regions="_JSON [\"Active\"]" n_terminators=30 energy=-941.7718988544938 pbc="F F F"
O        9.69676078      14.81386205      -0.16108400  T        0
O       14.79694630      20.78057927       6.27533834  T        0
O        9.60246353      18.29074631       3.61215332  T        0
O       18.48343655      20.69762656       2.57286607  T        0
O        9.63496393      11.98841295       2.71861162  T        0
O        5.71578511      21.65935688       3.52659642  T        0
O        9.78435378      15.69400619       6.30622487  T        0
O       12.03266037      21.01311632       3.65475597  T        0
O       15.79033221      20.85871540      -0.08669486  T        0
O       11.57270823      13.63247258       2.03003593  T        0
O       12.79706050      20.11698341       8.01596052  T        0
O       10.35485828      17.70422550       8.03513347  T        0
O       10.19583182      20.22964040       5.40886419  T        0
O        7.62139084      22.59020516       5.10420080  T        0
O       16.44978323      19.14088558       1.86228394  T        0
O       10.34846418      10.30500508       0.65541324  T        0
O       11.35376487      16.36603409       4.26706821  T        0
O       14.11649424      19.07009487       4.36513671  T        0
O       20.25010507      20.14917537       0.58177354  T        0
O       12.06217167      11.76136668       3.88086026  T        0
O       12.25932753      21.81198666       6.18712669  T        0
O        8.67341138      18.15885093       6.09984965  T        0
O        5.95195114      20.67018402       6.07194449  T        0
O       18.27454017      18.17335517       3.59345312  T        0
O        8.77953705      12.32047675       0.18333078  T        0
O       12.29731057      14.63974643       6.12115012  T        0
O       12.04095104      18.31543454       2.52169225  T        0
O       15.94731909      18.32409135       6.25945597  T        0
O       18.28892492      21.78827371       0.10409954  T        0
O       10.37497474      16.41558892       1.79613641  T        0
O       14.13966625      22.54971080       8.01792157  T        0
O        7.73791383      20.01105241       4.35828062  T        0
O       10.29518633      22.80456775       4.74183104  T        0
O       16.60215354      20.02645384       4.39450849  T        0
O       10.46632338      13.83153258       4.47471661  T        0
O        7.93788793      16.35811498       8.00454668  T        0
O       13.85121452      19.94115056       1.57288115  T        0
O       20.16644025      22.57510433       1.91215250  T        0
O        7.84409780      10.39606742       1.88231920  T        0
Al      11.05393746      14.93028967       1.07769298  T        0
Si      13.50110595      21.31911404       7.12752870  T        0
Si       9.05593091      19.18673386       4.88260941  T        0
Si       8.88485350      23.60294322       4.92079593  T        0
Si      17.47247780      19.52243431       3.11070207  T        0
Si      10.93959449      12.80842772       3.28026179  T        0
Si       6.74902655      21.25910958       4.75921710  T        0
Si       9.17840555      16.98806454       7.12430872  T        0
Si      11.21131396      21.45853765       4.97404166  T        0
Si      15.28480180      19.62688211       0.84810921  T        0
Si       9.16033290      11.21888568       1.35290217  T        0
Si      10.96420118      15.15205399       5.30959381  T        0
Al      13.02849472      19.67941037       3.17543835  T        0
Si      15.32290511      19.53855297       5.33005715  T        0
Si      10.82446212      17.35316563       3.07216797  T        0
Si      19.31544550      21.31050082       1.29287510  T        0
O        8.73898948      24.51587384       3.54899475  T        0
O        8.77627504      24.46705120       6.31802457  T        0
O       15.86970750      24.72610685      -3.43239243  T        0
O       18.44260183      24.33468226      -2.59492295  T        0
O       14.85125501      11.98586025      -2.45700458  T        0
O       15.81562865      21.70610867      -6.42187101  T        0
O        5.78332812      14.64621486      -3.42628638  T        0
O       15.81162281      18.30242455      -2.59770134  T        0
O       12.16335475      14.72621575      -2.56343842  T        0
O        8.79034091      14.69130052      -6.40249086  T        0
O       18.48704509      15.70200899      -2.43423902  T        0
O       14.08150853      13.92910642      -0.84051845  T        0
O       17.33517235      22.71929613      -4.46249754  T        0
O        7.78790750      13.16287972      -4.44258723  T        0
O       16.53615221      16.44234922      -0.78941573  T        0
O       12.81346120      10.29619593      -1.82514992  T        0
O       10.32985659      12.89202445      -1.90533347  T        0
O       17.60840282      20.15361943      -1.89464243  T        0
O       20.21631770      17.70261310      -1.82664179  T        0
O       12.24142222      15.63415362      -0.03889346  T        0
O       15.89800223      12.12985624       0.05313489  T        0
O       18.38708969      20.81720358      -6.08944117  T        0
O        6.15072912      12.07123305      -2.57992150  T        0
O        9.67235525      12.10932964      -6.08617862  T        0
O       18.34698517      14.62073384       0.06612583  T        0
O       14.77008109      18.35027404      -0.12766198  T        0
O       12.36193181      12.22766562      -3.50280474  T        0
O       18.30744200      18.17230533      -3.52989074  T        0
O       16.59072052      13.92389923      -1.72510925  T        0
O       14.13560228      10.29857452      -4.26741970  T        0
O       16.61510885      20.11860548      -4.37207031  T        0
O        7.84364872      13.87984173      -1.84872705  T        0
O       14.05082291      16.44703326      -1.80632646  T        0
O       10.39170206      13.88520096      -4.37230099  T        0
O       16.64097019      22.64698595      -1.86420069  T        0
O       20.20889833      16.36030769      -4.25368274  T        0
Si      15.34842317      12.96790540      -1.24738918  T        0
Si      17.03049295      21.37366168      -5.35043794  T        0
Si       6.87590995      13.44599511      -3.11005643  T        0
Si      15.32127023      17.36601994      -1.36040826  T        0
Si      13.14083312      15.16917756      -1.32099130  T        0
Si       9.12817814      13.46798645      -5.34101516  T        0
Si      17.06022786      23.62177256      -3.12109977  T        0
Si      17.51262097      15.18276567      -1.22854344  T        0
Si      11.31716833      13.41650227      -3.10312921  T        0
Si      17.10200825      21.38087885      -0.93844476  T        0
Si      19.32492762      16.99076202      -3.02087983  T        0
Si       9.13518005      13.45055877      -0.93522236  T        0
Si      13.53200922      11.18137032      -3.02092132  T        0
Si      17.10019062      19.19042543      -3.11638230  T        0
H        5.57209901      22.58475209       3.23920925  F        0
H       13.27046745      19.56837449       8.65412958  F        0
H       10.92750145      17.22544079       8.65411313  F        0
H       10.92752655       9.64346076       1.07209470  F        0
H       20.85246702      19.56839425       1.07212032  F        0
H       12.70105063      11.39908942       3.24464026  F        0
H        5.29989873      21.15211322       6.60185973  F        0
H       19.09683476      17.79487503       3.24462109  F        0
H       12.70105695      15.05290863       6.89848520  F        0
H       15.44301084      17.79487314       6.89846715  F        0
H       13.68673605      23.15239550       8.63276462  F        0
H        7.34350493      16.80917637       8.63275504  F        0
H       20.83112530      23.15241223       1.48839475  F        0
H        7.34352333       9.66479174       1.48837704  F        0
H        7.91116176      24.92409770       3.23921137  F        0
H        9.34383450      25.19630608       6.60185911  F        0
H       15.43756588      24.92408969      -4.28745700  F        0
H       18.80021526      25.19629522      -2.85480231  F        0
H       15.43758004      22.58476212      -6.62655944  F        0
H        5.57209393      15.05833723      -4.28746901  F        0
H        7.91114242      15.05832763      -6.62654864  F        0
H       13.27048028       9.64343273      -1.27111845  F        0
H       20.85247350      17.22542539      -1.27111836  F        0
H       15.44303658      11.39914474       0.50251735  F        0
H       18.80021053      21.15208141      -6.89875154  F        0
H        5.29990407      11.69569909      -2.85482259  F        0
H        9.34382502      11.69567665      -6.89874716  F        0
H       19.09678362      15.05286173       0.50248505  F        0
H       13.68673308       9.66480596      -4.85513656  F        0
H       20.83112308      16.80913882      -4.85512183  F        0
Fe      10.25088097      16.82256950      -0.40922514  T        0
Fe      12.54622822      18.63072712       0.47688629  T        1
O       11.09076627      18.41299152      -0.64619203  T        2
