144
Lattice="24.397 0.0 0.0 0.0 24.397 0.0 0.0 0.0 24.397" Properties=species:S:1:pos:R:3:move_mask:L:1:tags:I:1 i=41 E=-6943.8331748197 regions="_JSON [\"Active\"]" n_terminators=26 energy=-1009.9400427436524 pbc="F F F"
O        9.70897126      14.91313428      -0.21415342  T        0
O       12.25676856       9.49803367       2.54247013  T        0
O       14.76002740      20.67615476       6.31384150  T        0
O        9.56872478      18.29606246       3.60751502  T        0
O       20.94510354      15.70920539       0.02854930  T        0
O       18.39210678      20.85288402       2.64265933  T        0
O       14.71145984       9.59167252       0.04943211  T        0
O        9.57964155      12.01461565       2.73099973  T        0
O        5.75853227      21.70393200       3.62266994  T        0
O        9.77519765      15.68263007       6.31545970  T        0
O       12.09788725      20.86977272       3.59568268  T        0
O       15.85628338      20.95948763      -0.12976220  T        0
O       21.02251815      18.23400953       2.61686406  T        0
O       11.47515670      13.69655243       1.96224462  T        0
O       14.10932470      11.34958224       2.00092074  T        0
O       12.76686557      20.17202398       8.08694329  T        0
O       10.36405194      17.70372096       8.02568413  T        0
O       10.29039331      20.14658495       5.40924636  T        0
O        7.72218292      22.71705316       5.12683739  T        0
O       19.21553632      16.35108497       1.99400739  T        0
O       16.51016303      19.06426409       1.95865843  T        0
O       10.21775068      10.20048870       0.87496987  T        0
O       11.34493537      16.38529501       4.30156117  T        0
O       14.05848007      19.16497487       4.25140964  T        0
O       20.35138773      20.19736409       0.91307349  T        0
O       12.10087506      11.86299516       3.72779016  T        0
O       12.29032311      21.77947075       6.09884246  T        0
O        8.66585598      18.15445598       6.10774974  T        0
O        6.10631314      20.80985329       6.19102540  T        0
O       18.51639141      18.35508912       3.57963627  T        0
O       12.19228089       8.68068428      -0.00095233  T        0
O        8.87219402      12.40819549       0.17113552  T        0
O       12.29017623      14.62987443       6.12932071  T        0
O       12.06609399      18.33895281       2.64084646  T        0
O       15.77105261      18.14738780       6.05843807  T        0
O       18.41226867      21.73644019       0.09229729  T        0
O       21.88179694      18.21326840       0.08062504  T        0
O       10.41037161      16.48366595       1.79487225  T        0
O       14.05509753      10.16043700       4.41414720  T        0
O       14.10564827      22.58855824       7.95472342  T        0
O        7.81203620      20.11011256       4.42005839  T        0
O       10.32232443      22.64626243       4.45307213  T        0
O       20.19523868      13.83314093       1.73849042  T        0
O       16.59849121      20.01313925       4.44072906  T        0
O       16.60952254      10.30601195       1.76200809  T        0
O       10.46411842      13.85546457       4.45064960  T        0
O        7.94267790      16.35232246       8.01476836  T        0
O       13.72920372      19.93912647       1.65157445  T        0
O       20.27765672      16.51085833       4.46855112  T        0
O       20.12529593      22.68370568       1.96608606  T        0
O        7.61907480      10.58828618       1.62520687  T        0
O       22.87596662      19.97162764       1.85525937  T        0
O       10.48777613       7.70001872       1.86349186  T        0
Al      11.08150998      15.02476675       1.00696091  T        0
Si      13.13696312      10.72742730       3.17249314  T        0
Si      13.47975808      21.31171844       7.12812508  T        0
Si       9.06815310      19.18216092       4.90397748  T        0
Si       9.06538029      23.62090091       4.86907206  T        0
Si      19.69414524      15.18863173       0.95111813  T        0
Si      17.50097248      19.55987836       3.13064195  T        0
Si      15.27276443      10.83610471       0.96279939  T        0
Si      10.90661271      12.85548601       3.22398218  T        0
Si       6.83733514      21.36841346       4.83111143  T        0
Si       9.17833558      16.97963516       7.13217333  T        0
Si      11.24710164      21.37803444       4.90971204  T        0
Al      15.32632946      19.65704392       0.86195821  T        0
Si      19.74593694      17.36733700       3.16842989  T        0
Si       9.08187787      11.27995343       1.35005055  T        0
Si      10.95756854      15.14658523       5.32003173  T        0
Si      13.02411692      19.62914709       3.09419128  T        0
Si      21.52994598      19.16317382       1.36599966  T        0
Si      11.28427869       9.02753319       1.31387649  T        0
Si      15.29676870      19.51769543       5.28484046  T        0
Si      10.81101418      17.36404117       3.11408360  T        0
Si      19.31450064      21.37102605       1.39532487  T        0
O        8.76001309      24.73872123       3.68924058  T        0
O        9.57723184      24.32018435       6.26323777  T        0
O       14.83212871      12.11622374      -2.59028520  T        0
O       15.85346432      18.38252747      -2.55221171  T        0
O       12.10425675      14.76840673      -2.57280946  T        0
O       18.34953403      15.76123265      -2.54741153  T        0
O       14.06471489      14.00733053      -0.90359740  T        0
O       16.44226482      16.44208937      -0.81047817  T        0
O       13.04003349      10.20835895      -1.97813718  T        0
O       10.17379593      12.98138094      -2.05349870  T        0
O       17.58455874      20.43401841      -2.09450844  T        0
O       20.33646332      17.45882123      -1.92926232  T        0
O       12.28028764      15.74788447      -0.07698853  T        0
O       15.65409383      12.08484937      -0.02347641  T        0
O       18.41877982      14.85146074      -0.01614430  T        0
O       14.63405159      18.32468386      -0.17126451  T        0
O       12.29459522      12.24903761      -3.47785710  T        0
O       18.35400226      18.28885235      -3.45823598  T        0
O       16.60388238      13.92188713      -1.71055535  T        0
O       14.06231882      10.48253419      -4.48547851  T        0
O       22.81530945      16.41782259      -1.70671694  T        0
O       16.52817625      19.95954759      -4.52856094  T        0
O        7.71004904      14.03856478      -1.70011754  T        0
O       14.02547101      16.49120970      -1.95973602  T        0
O       10.51974007      14.01290422      -4.52112476  T        0
O       16.85120099      22.99214888      -1.58091987  T        0
O       20.04905123      16.41934115      -4.42590874  T        0
O       14.05452926       7.72097081      -1.71177352  T        0
Si      15.30426558      13.01866124      -1.30861255  T        0
Si      15.26316035      17.40938341      -1.39120760  T        0
Si      13.12849888      15.24606718      -1.38582859  T        0
Si      17.46654005      15.24249168      -1.27302346  T        0
Si      13.49938161       9.04753956      -0.91240361  T        0
Si      11.27731769      13.47967063      -3.16204084  T        0
Si      17.14801709      21.51290881      -0.91916729  T        0
Si      19.28262181      16.99591534      -3.09096400  T        0
Si       9.10013359      13.55300442      -0.95908761  T        0
Si      13.54874469      11.25122056      -3.12965188  T        0
Si      21.49578256      16.95633686      -0.88362913  T        0
Si      17.09593075      19.28274200      -3.14050146  T        0
H        5.57209901      22.58475209       3.23920925  F        0
H       13.27046745      19.56837449       8.65412958  F        0
H       10.92750145      17.22544079       8.65411313  F        0
H        5.29989873      21.15211322       6.60185973  F        0
H       12.70105695      15.05290863       6.89848520  F        0
H       15.44301084      17.79487314       6.89846715  F        0
H       14.73192765      10.71000053       4.85487458  F        0
H       13.68673605      23.15239550       8.63276462  F        0
H       19.78590388      13.44267559       2.53358811  F        0
H       17.05321204      10.71001402       2.53361564  F        0
H        7.34350493      16.80917637       8.63275504  F        0
H       19.78593016      15.76396550       4.85484922  F        0
H       20.83112530      23.15241223       1.48839475  F        0
H        7.34352333       9.66479174       1.48837704  F        0
H       23.15241204      20.83112542       1.48839475  F        0
H        9.66479163       7.34352337       1.48837704  F        0
H        7.91116176      24.92409770       3.23921137  F        0
H        9.34383450      25.19630608       6.60185911  F        0
H       13.68673308       9.66480596      -4.85513656  F        0
H       23.15240156      16.80916493      -2.53384338  F        0
H       16.80913871      20.83112323      -4.85512183  F        0
H        7.34352146      13.68671965      -2.53387758  F        0
H        9.66480591      13.68673318      -4.85513656  F        0
H       16.80916481      23.15240172      -2.53384338  F        0
H       20.83112308      16.80913882      -4.85512183  F        0
H       13.68671953       7.34352150      -2.53387758  F        0
Fe      10.12816603      16.94610176      -0.38279932  T        0
Fe      12.63528957      18.59250446       0.31917799  T        1
O       10.99728117      18.52636588      -0.55188653  T        2
