139
Lattice="20.102 0.0 0.0 0.0 19.731 0.0 0.0 0.0 13.253" Properties=species:S:1:pos:R:3:move_mask:L:1:tags:I:1 i=77 E=-3472.0240129048 regions="_JSON [\"Active\"]" n_terminators=30 energy=-954.1562682400182 pbc="F F F"
O       10.33813147       1.24999559       9.56598778  T        0
O        7.46583697       1.13480479      10.33683050  T        0
O        8.56827704       2.81047513       8.09293808  T        0
O        8.19557812       6.99158415       8.50261606  T        0
O        8.59231511       0.22174905       7.68495344  T        0
O        6.56350042       1.07895243      12.80169154  T        0
O        3.19752336       0.92989106       4.18752361  T        0
O       14.21229231       0.70247374       2.06281369  T        0
O        4.82721584       1.14255926      10.73089276  T        0
O       15.68967012       1.55914245       9.50418080  T        0
O        5.56716113       2.64315752       1.36143231  T        0
O        6.21580390       7.37838167       1.23694972  T        0
O        3.90927113       1.05810605      -0.06620078  T        0
O       14.22582127       1.37505925       6.36741529  T        0
O        5.89774547      -0.05129719       1.38849474  T        0
O       12.15927824       7.33164072       5.62726071  T        0
O       11.68798294       2.37608207       5.66411273  T        0
O       11.83717917       0.74511531       7.51247130  T        0
O        2.32508467       1.70428929       9.98176119  T        0
O       13.01829345       1.27556131       9.87658067  T        0
O        8.22416622       9.14226134       3.68770119  T        0
O        8.51125049       0.88144320       3.82451848  T        0
O        4.28158123       2.75952514       8.64856872  T        0
O        3.99315682       7.18067661       8.67471252  T        0
O       14.58842304       2.14416820      11.92100409  T        0
O       10.09314035       3.00024197       3.47150843  T        0
O       10.10081605       7.16214364       3.86015802  T        0
O        2.27689341       3.41017370       3.83976367  T        0
O       13.01123231       2.73732275       3.24653779  T        0
O       12.51208952       7.36179508       2.89879161  T        0
O       11.80284407       5.11587870       4.34397078  T        0
O        3.50367971       7.31360787       6.05403263  T        0
O        3.57353338       2.78433134       6.08516237  T        0
O       13.62386647       2.91790598       0.64892162  T        0
O        4.75416270       7.46185057       3.36856737  T        0
O        4.94829301       2.93883443       3.89006960  T        0
O       15.59986458       2.92844115       2.45775988  T        0
O        4.36036934       5.03267936       7.25070512  T        0
O        6.04261153       7.05079341       6.86042454  T        0
O        6.14289631       3.07465858       6.82294385  T        0
O        7.87942959       5.08608514       6.77913571  T        0
O        8.42998898       7.54373515       5.87031426  T        0
O        8.52846064       2.76993767       5.60222439  T        0
O        7.42918609       6.69311320       3.55867971  T        0
O        7.45279153       3.23506943       3.17225553  T        0
O        5.67858492       5.07120753       2.46876586  T        0
Al       8.64175116       1.33276239       9.13099648  T        0
Si       6.27471154       0.57389661      11.26183237  T        0
Si       5.43917823       1.25664450       0.52043892  T        0
Si      12.63669077       1.08799569       6.08292841  T        0
Si      11.73349304       0.54930149       9.18545730  T        0
Si       3.84970829       1.40864251       9.45262923  T        0
Si      14.50516482       1.18994482      10.58731223  T        0
Al      11.66649508       3.41102105       4.10395213  T        0
Si      11.66604987       6.70851664       4.17033072  T        0
Si       3.49458266       2.50910821       4.47963545  T        0
Si      14.08145944       2.34275007       2.12514862  T        0
Si       4.49451185       6.65424063       7.20614649  T        0
Si       4.57740187       3.42719294       7.20154636  T        0
Si       7.63297993       6.68586796       6.99387082  T        0
Si       7.70696089       3.48681386       6.87497928  T        0
Si       8.59355386       7.63566760       4.23248923  T        0
Si       8.66489659       2.49572666       3.93615125  T        0
Si       6.03529223       6.65269511       2.69588472  T        0
Si       5.91757896       3.48458467       2.70708781  T        0
O        6.43306285       1.46265487      -0.76374449  T        0
O       10.11222212      -1.22557842       3.99116668  T        0
O        2.44167033      -1.60992358       3.82431237  T        0
O       12.39903244      -1.23159420       2.68517597  T        0
O       12.13748697      -2.74192131       4.89269764  T        0
O       12.37642041      -0.14561163       5.07524514  T        0
O        3.75441793      -0.96353948       6.03237865  T        0
O       13.54343017      -1.32070454       0.37192994  T        0
O        6.21744264      -1.05611201      11.15939331  T        0
O        5.08398623      -0.88747464       3.78328814  T        0
O       15.02191458      -1.76827186       2.58491402  T        0
O        4.15504322      -2.49549026       8.15141054  T        0
O        6.07837056      -0.74381696       7.36715639  T        0
O        3.85019111       0.11756797       8.45438768  T        0
O       14.78309933      -0.35886629      11.09058890  T        0
O        8.04129011      -2.45552488       7.75038324  T        0
O        7.96273332      -1.10255217       5.51211171  T        0
O        7.58048819      -1.41030892       2.93556147  T        0
O       11.74801809      -1.04518105       9.51238556  T        0
O        5.39020884      -2.67166810       1.95131567  T        0
O       10.01116565      -3.10224392       9.35328758  T        0
O        7.50416470      -3.22565188      10.24199935  T        0
O        8.32386557      -4.99147803       8.36099471  T        0
O        6.54346924      -3.27708629      12.65449676  T        0
O        4.81345345      -3.21691692      10.62695691  T        0
O       14.12667778      -3.94881834       6.37084743  T        0
O       11.73968820      -5.02381708       6.14061884  T        0
O       11.98157819      -2.72304397       7.52006952  T        0
O        2.22369978      -3.43084605       9.87257482  T        0
O       12.42018099      -3.59003381      10.07107123  T        0
O        4.02386789      -5.03335844       8.77471463  T        0
Si      11.73058662      -1.34868812       4.15618045  T        0
Si       3.61039061      -0.63520221       4.44561139  T        0
Si      13.80238117      -0.86280847       1.92454336  T        0
Si       4.47122247      -1.03741414       7.49329373  T        0
Si       7.66470973      -1.01788892       7.10015233  T        0
Si       8.55772632      -0.72440144       4.05426323  T        0
Si       6.00266548      -1.25141955       2.48996155  T        0
Si       8.47172867      -3.46845278       8.94980192  T        0
Si       6.26927779      -2.67725501      11.14822694  T        0
Si      12.52179115      -3.58783487       6.23612080  T        0
Si      11.53527609      -2.61367236       9.09190011  T        0
Si       3.79714696      -3.52082640       9.37863497  T        0
H        8.32487050       7.90186745       8.80281456  F        0
H        6.01931354       0.95312461      13.59787507  F        0
H       16.04398914       0.93401564       8.84225549  F        0
H        5.69664665       8.18021685       1.05659762  F        0
H        3.12887898       0.94105847       0.49683427  F        0
H       15.03932989       0.97965726       5.99268335  F        0
H       12.40451339       8.25291401       5.80455660  F        0
H        1.92726146       1.06764952      10.59110356  F        0
H        8.57917776       9.96978004       4.04186183  F        0
H        4.22937585       8.00675492       9.12987558  F        0
H       14.56690736       3.08960840      12.16034191  F        0
H        2.04924740       3.38484890       2.89306909  F        0
H       13.35632228       7.06085325       2.51220488  F        0
H        3.68470478       7.32851759       5.08310689  F        0
H       14.23421140       3.11626372      -0.07819396  F        0
H        4.34567170       7.30371036       4.24836906  F        0
H       15.83774431       3.12895724       3.37716863  F        0
H        6.58577873       0.71565665      -1.35751145  F        0
H        1.81269882      -1.43617684       3.09859994  F        0
H       14.08297195      -0.95342037      -0.34490676  F        0
H       15.58095514      -1.34062803       3.25070227  F        0
H       14.37509522      -0.66310164      11.91539968  F        0
H        5.53537813      -3.08990416       1.09262638  F        0
H        8.48702655      -5.84645393       8.80063176  F        0
H        5.86807409      -3.11655948      13.33116226  F        0
H       14.91456244      -3.38427837       6.30897701  F        0
H       12.17714150      -5.84801228       6.40017283  F        0
H        1.73086688      -2.74256168      10.35624453  F        0
H       13.32025658      -3.33869676      10.31771692  F        0
H        4.05997682      -5.86251935       9.28699688  F        0
Fe       9.98489611       1.73999738       6.77649036  T        1
