148
Lattice="24.397 0.0 0.0 0.0 24.397 0.0 0.0 0.0 24.397" Properties=species:S:1:pos:R:3:move_mask:L:1:tags:I:1 i=41 E=-6943.8331748197 regions="_JSON [\"Active\"]" n_terminators=24 energy=-1049.510340737693 pbc="F F F"
O        9.64271691      14.62982719      -0.07266543  T        0
O       12.30882237       9.52568334       2.49322751  T        0
O       14.85360604      21.07131919       6.14075031  T        0
O       12.18828956      15.66689579       8.87833683  T        0
O        9.42716896      18.37852827       3.43691724  T        0
O       15.73122616       9.59101135       6.13685114  T        0
O       18.31179018      14.76291790       8.71818975  T        0
O       20.81786627      12.07895202       3.57988737  T        0
O       20.95876467      15.61138259      -0.14305924  T        0
O       18.31561112      21.09416656       2.64045455  T        0
O       14.62615057       9.58912802      -0.05461765  T        0
O        9.49735996      12.28528203       2.54727683  T        0
O       20.93326799      14.82707036       6.13397385  T        0
O       15.76513518      12.20731268       8.73585467  T        0
O       18.52240354       9.78747614       3.61134811  T        0
O        9.45676269      15.60898509       6.22452019  T        0
O       14.85687559      18.35421268       8.86818022  T        0
O       12.25433253      21.10575033       3.50394681  T        0
O       15.63479040      21.02535268      -0.06750724  T        0
O       21.09451161      18.25153069       2.59388223  T        0
O       11.55792670      13.88875230       1.96707624  T        0
O       13.82656721      11.63633495       1.80137834  T        0
O       17.46002515      10.20642159       8.11385382  T        0
O       20.29124300      13.05926707       8.06769043  T        0
O       20.40874324      10.17002691       5.44461192  T        0
O       19.23274666      16.49782917       1.77137426  T        0
O       16.50914377      19.27237264       1.79942928  T        0
O       10.25860640      10.27856962       0.94406365  T        0
O       11.21327368      16.60358926       4.43414402  T        0
O       14.05864562      19.26495486       4.29370023  T        0
O       13.97778470      16.55397956       7.05426851  T        0
O       19.18041598      14.09551313       4.26787629  T        0
O       16.59556318      11.44354089       4.44652579  T        0
O       16.44329905      14.07022098       6.94218613  T        0
O       11.92030247      11.91180525       3.65969666  T        0
O       18.26671986       8.73435956       6.07581863  T        0
O       18.30206812      12.22602290       9.59343208  T        0
O       21.83141249      12.31563563       6.04790971  T        0
O       18.47959395      18.49280085       3.33805750  T        0
O       12.09817324       8.68647367      -0.05077753  T        0
O        8.67491710      12.13426015      -0.02143349  T        0
O       12.06941653      14.91321231       6.26625134  T        0
O       12.05225424      18.49764937       2.80123410  T        0
O       15.61504302      18.47791378       6.26774911  T        0
O       18.39841305      15.70412658       6.21670893  T        0
O       18.29942949      12.28345622       2.57809438  T        0
O       14.79024670      12.10634598       6.24993960  T        0
O       10.46103601      16.59687795       1.85498629  T        0
O       14.08243449      10.49093065       4.24161008  T        0
O       20.01864901       7.75388151       4.27005623  T        0
O       16.46551793       7.69904973       7.79501146  T        0
O       20.02425243      14.07057574      10.57025249  T        0
O       22.82340250      10.52388785       4.28885735  T        0
O       20.13491648      13.95832384       1.76225538  T        0
O       16.59753681      20.08193564       4.37968969  T        0
O       16.52166179      10.47765591       1.95338249  T        0
O       10.42230138      14.00260789       4.38798359  T        0
O       22.79133172      14.09583127       7.82804559  T        0
O       16.47651205      10.51497523      10.61628688  T        0
O       13.93960517      20.04010440       1.72579594  T        0
O       20.06095104      16.59639563       4.33135933  T        0
O        7.72284899      10.46704243       1.88924948  T        0
O       16.53225182      16.57843551       7.88806670  T        0
O       13.95237918      13.99771337       7.90866355  T        0
O       10.45901924       7.74469108       1.88705781  T        0
Al      10.88886876      15.23179120       0.92973702  T        0
Si      13.03163645      10.88274326       3.05160560  T        0
Si      16.98852914       9.06127415       7.04625924  T        0
Si      19.23718106      13.51822811       9.24089234  T        0
Si      21.47630558      11.26370597       4.86098118  T        0
Si      19.71051103      15.25186973       0.84683287  T        0
Si      17.46567056      19.73908433       3.04065519  T        0
Al      15.20297807      10.87369537       0.90465356  T        0
Si      10.82357834      13.01448909       3.16082278  T        0
Si      21.45760667      13.56349798       7.03828325  T        0
Si      17.00827518      11.28232738       9.26581609  T        0
Si      19.30502479       9.09856632       4.87777334  T        0
Si      15.26140485      19.69199610       0.83043383  T        0
Si      19.70098190      17.48344195       3.01278871  T        0
Si       9.02986279      11.28672938       1.32406569  T        0
Si      10.79812247      15.29766067       5.31859634  T        0
Si      13.06321167      19.72827332       3.08268305  T        0
Si      15.23442593      17.49848745       7.51161062  T        0
Si      19.64801385      15.32223795       5.25996878  T        0
Si      17.45298281      10.92068379       3.16285041  T        0
Si      15.23671425      13.09720728       7.46852879  T        0
Si      11.27165607       9.04994528       1.30621300  T        0
Si      15.27780164      10.90480772       5.27201468  T        0
Si      19.67322967      13.10899655       3.08389378  T        0
Si      17.41699016      15.28151296       7.45213818  T        0
Si      15.27138130      19.72730978       5.27920039  T        0
Si      10.79196425      17.50951543       3.11975472  T        0
Si      13.03882140      15.29493522       7.51837037  T        0
O       14.88916248      12.01501518      -2.58869821  T        0
O       15.69661422      18.26025749      -2.78249470  T        0
O       12.14270502      14.75646269      -2.53070254  T        0
O       18.68027867      15.58886811      -2.51390876  T        0
O       14.11761137      13.88635500      -0.89920534  T        0
O       16.66339928      16.53923556      -0.98200149  T        0
O       12.99136337      10.12648889      -2.09469478  T        0
O       10.17804018      12.92854415      -2.06306622  T        0
O       12.45210871      15.42445351       0.10338330  T        0
O       15.92313816      12.21914828      -0.06466096  T        0
O       18.36820774      14.71422906      -0.00880041  T        0
O       14.96808980      18.41268517      -0.15685882  T        0
O       12.35922140      12.29884839      -3.45437115  T        0
O       16.62581970      13.99221827      -1.88849153  T        0
O       14.05121075      10.51264938      -4.55111458  T        0
O        7.70290680      14.00705605      -1.69592093  T        0
O       14.09892395      16.44551476      -1.77690805  T        0
O       10.53654627      13.98005821      -4.52007013  T        0
O       13.96968989       7.63047429      -1.65577311  T        0
Si      15.41307787      12.99788843      -1.41251631  T        0
Si      15.34658609      17.43788919      -1.39656897  T        0
Si      13.15855723      15.18987210      -1.33308152  T        0
Si      17.55269026      15.24273977      -1.37637660  T        0
Si      13.42936092       9.01397784      -0.95374643  T        0
Si      11.27401880      13.47846165      -3.13746179  T        0
Si       9.05413016      13.43355624      -0.95620501  T        0
Si      13.54803406      11.22427605      -3.16152061  T        0
H       14.01033133      21.15748981       6.62630180  F        0
H       11.67124922      16.48560174       8.95913012  F        0
H        9.33839640      18.82463975       4.28720704  F        0
H       21.15749781      16.48550533      -0.52720743  F        0
H       18.82463422      21.15752504       1.81198193  F        0
H        9.33840600      16.48559124       6.62628668  F        0
H       14.01032599      18.82464129       8.95915608  F        0
H       11.67126808      21.15750273       4.28721909  F        0
H       16.48550522      21.15749796      -0.52720744  F        0
H       21.15752488      18.82463433       1.81198193  F        0
H       20.83116242       7.34351907       4.61081863  F        0
H       16.80917625       7.34350499       8.63275504  F        0
H       20.83112794      13.68672549      10.95404502  F        0
H       23.15243040       9.66481607       4.61081458  F        0
H       23.15239535      13.68673615       8.63276462  F        0
H       16.80915547       9.66477682      10.95402362  F        0
H        7.34352333       9.66479174       1.48837704  F        0
H        9.66479163       7.34352337       1.48837704  F        0
H       16.48557283      18.82464187      -2.86023677  F        0
H       18.82464171      16.48557294      -2.86023676  F        0
H       13.68673308       9.66480596      -4.85513656  F        0
H        7.34352146      13.68671965      -2.53387758  F        0
H        9.66480591      13.68673318      -4.85513656  F        0
H       13.68671953       7.34352150      -2.53387758  F        0
Fe      16.93841345      13.48077021       1.38453819  T        0
Fe      13.52114090      13.80081548       1.34744902  T        1
O       15.20832479      14.04652822       2.36478533  T        2
O       15.80649899      15.05503258       1.47417768  T        3
