142
Lattice="19.123 0.0 0.0 0.0 14.277 0.0 0.0 0.0 7.5465" Properties=species:S:1:pos:R:3:move_mask:L:1:tags:I:1 i=128 E=-2603.9155142701 regions="_JSON [\"Active\"]" n_terminators=32 energy=-960.0009711275603 pbc="F F F"
O        6.05047199       1.12817811       1.45516790  T        0
O       15.79097490       8.43452507       5.77054925  T        0
O       13.24293742       1.10030727       1.33771601  T        0
O        3.50075789       8.45841807       5.80572052  T        0
O        6.24439238      13.02508235       2.12985298  T        0
O       15.80528622       5.75436624       5.88300456  T        0
O       12.84549428      13.08314520       1.80706372  T        0
O        3.33508967       5.78603140       5.80371817  T        0
O       13.39073903      13.19261654       6.23262728  T        0
O        3.35354219       5.78695378       1.84513959  T        0
O        6.02609140      13.15701443       6.10987258  T        0
O       15.54367516       5.87049180       1.78297221  T        0
O       13.29851725       1.11663382       6.18943816  T        0
O        3.38711388       8.48358745       1.77316773  T        0
O        6.14803140       1.31989708       5.25418852  T        0
O       15.63789851       8.54683098       1.74858564  T        0
O        7.15513812       3.40585894       2.52808333  T        0
O       17.20461344      10.70899356       6.13657826  T        0
O       12.02256492       3.25393574       2.51355397  T        0
O        1.89792552      10.58849052       6.20333250  T        0
O        7.26440373      10.65208622       2.33087902  T        0
O       17.18234208       3.44132890       6.09410580  T        0
O       11.89337858      10.53192915       2.29359627  T        0
O        1.96762344       3.45041692       6.07095684  T        0
O       12.01583362      11.16790168       5.03514000  T        0
O        1.95650835       3.49419791       1.44666038  T        0
O        7.04324060      10.85879707       4.99771901  T        0
O       17.18965107       3.85097830       1.21427972  T        0
O       11.86621995       3.30843916       5.37504871  T        0
O        2.05150340      10.78636729       1.36416433  T        0
O        7.24137737       3.65926995       5.20148604  T        0
O       17.16834759      10.76401948       1.44115828  T        0
O        6.69253805       3.21835716      -0.04716380  T        0
O       16.07670812      10.20660860       3.79337159  T        0
O       12.62624700       3.32352421      -0.03567086  T        0
O        2.98726906      10.15794979       3.81041423  T        0
O        6.40638053      11.43246853      -0.08701601  T        0
O       16.30711488       4.23342219       3.71811289  T        0
O       12.45583601      11.06107823      -0.04608099  T        0
O        3.10803671       4.00721662       3.79428079  T        0
O        4.62895527       3.42587551       1.68507744  T        0
O       14.51402540      10.77956339       5.89616248  T        0
O       14.59945934       3.35842596       1.81547888  T        0
O        4.53487582      10.93642790       5.85956935  T        0
O        4.64822008      10.85526509       1.82677536  T        0
O       14.52170115       3.42568748       5.45837708  T        0
O       14.51097281      10.97717859       1.74816514  T        0
O        4.66334910       3.49181878       5.94414457  T        0
O       11.59391365       8.43683125       3.89586662  T        0
O        7.42614665       8.47418465       3.83579542  T        0
O        1.81546308      13.12206163      -0.04802754  T        0
O       11.59269335       5.81619391       3.78741744  T        0
O        7.57462982       5.85906447       3.62402571  T        0
O        9.41425446      10.26006826       3.88142958  T        0
O       -0.04454144      11.20761747      -0.33027396  T        0
O        9.48394330       4.23939275       3.68411202  T        0
O       13.64166400       7.03953080       5.04720256  T        0
O        5.60646043       6.95134358       5.08129381  T        0
O        5.59186109       7.12976519       2.39270089  T        0
O       13.33672574       7.34204627       2.36385832  T        0
O       14.12714902       7.28579787      -0.09204770  T        0
O        4.64201734       7.03530878      -0.10093001  T        0
Si       6.10314981       2.77501934       1.42362751  T        0
Si      15.87876388      10.04056282       5.42173262  T        0
Si      13.10887095       2.75351898       1.43606913  T        0
Si       3.24574294      10.04035791       5.42732604  T        0
Si       6.12423487      11.49077561       1.52620638  T        0
Si      15.94307030       4.20745374       5.32230478  T        0
Si      12.98121439      11.47352053       1.47041313  T        0
Si       3.27699990       4.19204470       5.40941062  T        0
Si      13.09072190      11.56359891       6.16215770  T        0
Si       3.26489466       4.18289801       2.17393293  T        0
Si       6.05095786      11.50595430       6.11834263  T        0
Si      15.89209742       4.28911570       2.13298230  T        0
Si      13.18618315       2.77311934       6.15454542  T        0
Si       3.26628001      10.06684398       2.19759384  T        0
Si       6.12455495       2.77238609       6.04384685  T        0
Si      15.84692519      10.11950450       2.18263585  T        0
Al      11.14226134      10.18301007       3.94589838  T        0
Si       7.81854244      10.08921388       3.77372487  T        0
Si       1.55652718      11.47907289      -0.05634002  T        0
Al      11.31005762       4.01395927       3.89230501  T        0
Si       7.83665818       4.19235529       3.77981729  T        0
Si      14.90234779       7.09899455       6.10168253  T        0
Si       4.31608224       7.07205890       6.09015935  T        0
Si       4.23218024       7.11658009       1.47344497  T        0
Si      14.72504877       7.22456209       1.44510795  T        0
Si      12.57130570       7.13049337       3.85326326  T        0
Si       6.50086350       7.14886571       3.73950949  T        0
O        6.57975405       2.56534178       7.61479449  T        0
O       13.28135775       3.28527726       7.72089080  T        0
O        6.62867823      11.02315881       7.58510556  T        0
O       12.43766048      11.08923466       7.59405676  T        0
O       14.21193624       7.17871795       7.58954394  T        0
O        4.94784898       7.00841420       7.61283716  T        0
O        3.62016245       8.45753726      -2.12590227  T        0
O        3.32741588       5.86343531      -2.19308877  T        0
O        6.30954644      13.07010413      -2.23681512  T        0
O        2.37296003      10.72920395      -1.27718568  T        0
O        7.57408486      10.71766460      -2.37332645  T        0
O        2.80167658      10.36716776      -3.85049423  T        0
O        4.87808768      10.78683838      -2.18679369  T        0
O        5.87707185       6.89983796      -2.36794956  T        0
Si       3.41856666      10.07204719      -2.34972011  T        0
Si       6.27136212      11.49550739      -1.72355998  T        0
Si       4.36836627       7.05990852      -1.71531843  T        0
H        5.61083456       0.52083913       2.07985367  F        0
H       13.50938118       0.51971906       2.07492992  F        0
H        5.61112307      13.75835362       2.07975607  F        0
H       13.50958039      13.75682243       2.07498241  F        0
H       13.51084140      13.75504172       5.44776650  F        0
H        5.62495998      13.75277707       5.44935724  F        0
H       13.50975252       0.52161770       5.44778410  F        0
H        5.62509051       0.52255101       5.44942550  F        0
H       17.28974254      11.12548174       7.01862795  F        0
H        1.83343022      11.12554006       7.01950242  F        0
H       17.28979000       3.14560285       7.02339196  F        0
H        1.81954193       3.15353441       6.98813474  F        0
H        1.83183800       3.14857954       0.53722786  F        0
H       17.29134854       3.14797220       0.53999843  F        0
H       17.29120144      11.12876736       0.54010345  F        0
H        6.35952436       2.97904956      -0.93427223  F        0
H       12.76076393       2.97683097      -0.93375646  F        0
H       12.76174962      11.29928001      -0.93393629  F        0
H        2.56257806      13.76129914       0.00087584  F        0
H       -0.96427299      11.34215683       0.00103770  F        0
H       14.60982961       7.13673871      -0.92783774  F        0
H        6.35949513       2.97597070       8.47938261  F        0
H       12.76321398       2.97604733       8.47995589  F        0
H        6.35946036      11.30224636       8.48133548  F        0
H       12.76333233      11.30075111       8.47967776  F        0
H       14.61405599       7.13800201       8.47661577  F        0
H        4.50898861       7.14016697       8.47499567  F        0
H        3.36064390       4.89097090      -2.09366187  F        0
H        5.62495998      13.75277707      -2.09714276  F        0
H        7.72914317      10.28615024      -3.24155184  F        0
H        3.19736723      10.11759060      -4.70766930  F        0
H        6.23944212       7.13797332      -3.24031999  F        0
Fe       9.67897306       6.25247371       2.88885624  T        0
Fe      11.49956018       8.61736870       1.62452800  T        1
O        9.53307291       7.79755779       1.63025656  T        2
O       10.62708442       6.93810883       1.06535809  T        3
