139
Lattice="24.397 0.0 0.0 0.0 24.397 0.0 0.0 0.0 24.397" Properties=species:S:1:pos:R:3:move_mask:L:1:tags:I:1 i=41 E=-6943.8331748197 regions="_JSON [\"Active\"]" n_terminators=32 energy=-936.1816619856706 pbc="F F F"
O       21.66181998       2.60756175       0.04637068  T        0
O       21.86674446       6.15376295       3.52646380  T        0
O       15.55022770       9.68586780       6.24543392  T        0
O       21.00276735      12.46234905       3.53744045  T        0
O       20.82329889       3.63948118      12.34943561  T        0
O       15.69138605       6.22116226       9.80483535  T        0
O       21.84720635      -0.04148428       2.54621175  T        0
O       18.38222936       9.63857949       3.32912213  T        0
O       21.80589615       3.55172705       5.92139393  T        0
O       18.26878268       3.57026105       9.81597431  T        0
O       23.72555719       1.71399623       1.78711885  T        0
O       22.82713435       5.39146951       8.01681167  T        0
O       22.64209636       7.99251307       5.34036407  T        0
O       17.60895779      10.57561601       7.83686109  T        0
O       20.07864783      10.57408331       5.22615172  T        0
O       18.86613111       4.25728208      14.15608629  T        0
O       16.26875296       4.16996706      11.48867928  T        0
O       23.67731091       4.26747637       4.21192461  T        0
O       17.68340764       7.91589615      10.50781687  T        0
O       20.16049812       5.37256948      10.47267155  T        0
O       20.86386525       5.98529843       5.87657026  T        0
O       18.12799076       8.90118441       5.93325733  T        0
O       21.98102616      12.29757682       6.09351859  T        0
O       18.29636116       2.59698401      12.28585775  T        0
O       14.59785871       6.14514252      12.28058249  T        0
O       20.96850829       0.02962778       0.02178507  T        0
O       24.33706593       2.67079383       6.28067153  T        0
O       24.38577969       6.26516581       2.58459227  T        0
O       18.17674020       6.03199811       8.80643321  T        0
O       22.01965543       6.08210402      12.33410413  T        0
O       22.63407995       4.37035597       1.75612061  T        0
O       16.58232158       1.67713609      10.41565239  T        0
O       22.67605693       4.37487328      10.50642529  T        0
O       20.13105045       8.03550170       4.36293421  T        0
O       16.60230686       8.04322815       8.01433486  T        0
O       22.63478460      10.48387403       4.37197476  T        0
O       20.20555851       1.82951322      14.07689200  T        0
O       13.80610586       4.42525706      10.41433123  T        0
O       22.80979227       1.72358632       4.29291970  T        0
O       20.05190372       4.33790838       8.01111187  T        0
Al      23.32687151       3.02763703       0.74667586  T        0
Si      23.67544031       4.87504457       9.30016603  T        0
Si      21.38894551       7.10799584       4.80792259  T        0
Si      16.96188776       9.29633762       7.01697726  T        0
Si      21.38932328      11.47488758       4.80388741  T        0
Si      19.55338447       3.07670742      13.22176530  T        0
Si      15.11724940       5.23770704      11.00190062  T        0
Si      23.20882346       0.78533785       2.99863269  T        0
Si      19.16396007       9.30666054       4.74084194  T        0
Al      21.45099919       4.84753920       7.15393969  T        0
Si      23.59714730       9.26156816       4.87557840  T        0
Si      17.33405886       3.00738926      11.02166480  T        0
Si      23.19314349       3.02549884       5.18889112  T        0
Si      19.17583767       4.81698925       9.27304760  T        0
Si      23.17985824       5.26990263       3.02184027  T        0
Si      21.40157103       4.86595026      11.41905786  T        0
Si      17.00865598       7.05420973       9.27099181  T        0
O       24.62213483       3.61708634       8.79762748  T        0
O       24.56288525       8.73270733       3.65562893  T        0
O       26.30731868       6.72394932       4.25886236  T        0
O       26.33741913       4.22415148       6.72771885  T        0
O       24.47685748       9.81283194       6.14573305  T        0
O       24.63490877       6.06355491       9.92560728  T        0
O       26.28754282       8.04321485       1.82055278  T        0
O       26.22703275       1.76488727       8.01227142  T        0
Si      25.41248685       7.45085122       3.08002282  T        0
Si      25.40124595       3.07980788       7.46760436  T        0
O       24.69333394       2.42432452      -2.82105037  T        0
O       26.24082281       1.79873337      -0.68942453  T        0
O       24.35117092      -0.15382942      -3.58464216  T        0
O       26.51568771       4.18114426      -2.06128706  T        0
Si      25.47676720       3.02695752      -1.49369432  T        0
O       24.60893823      -2.70537077       2.41795498  T        0
O       26.30445091      -0.64274693       1.84735101  T        0
O       24.44511190      -3.70383914      -0.08590194  T        0
O       26.32213825      -1.97761948       4.26651883  T        0
Si      25.41773667      -1.40316233       3.01266782  T        0
O       17.96918159       2.42549089      -3.43576010  T        0
O       20.99900711       2.52431030      -6.39391384  T        0
O       19.98978214       0.96398876      -4.47616150  T        0
O       22.67430333       0.99999039      -1.80245038  T        0
O       24.43269949       3.61663573      -0.41375039  T        0
O       18.36707943      -0.14336506      -2.61884126  T        0
O       21.89812460      -0.05750907      -6.11524376  T        0
O       20.05898626       1.67999199      -1.89247293  T        0
O       22.59319652       1.69065855      -4.36337059  T        0
Si      19.08060546       1.23628301      -3.14202889  T        0
Si      21.34530225       1.28470719      -5.35080689  T        0
Si      23.60142352       1.24434708      -3.14671531  T        0
Si      21.32672639       1.29446127      -0.93833260  T        0
O       18.00568423      -3.43193922       2.44813187  T        0
O       21.00008864      -6.41305979       2.51684142  T        0
O       22.64121281      -1.89231821       0.79246492  T        0
O       20.00538933      -4.47404526       0.96560601  T        0
O       24.35541409      -0.26480236       3.50548663  T        0
O       18.36750800      -2.62502755      -0.13500289  T        0
O       21.90653492      -6.12089010      -0.05446115  T        0
O       20.09464089      -1.88916707       1.66683752  T        0
O       22.61011640      -4.38642121       1.71046461  T        0
Si      21.38224923      -0.96057866       1.26467196  T        0
Si      21.35244258      -5.35791420       1.28926242  T        0
Si      23.58964428      -3.16704026       1.21327221  T        0
Si      19.10233636      -3.13333560       1.24312996  T        0
H       15.43757914      10.38640764       5.57209357  F        0
H       20.10951523      12.72546585       3.23923157  F        0
H       17.77043279      10.38640226       3.23924444  F        0
H       17.22544067      10.92750153       8.65411313  F        0
H       19.36965545       4.82834000      14.75328662  F        0
H       17.22544070       8.65411150      10.92750362  F        0
H       21.54216027      12.99764967       6.60187561  F        0
H       15.05290857       6.89848394      12.70105939  F        0
H       21.54216028       6.60187434      12.99765198  F        0
H       15.76397057       1.24433790      10.70999951  F        0
H       19.78591983       1.24430349      14.73192035  F        0
H       13.44269039       3.56560577      10.71001015  F        0
H       26.95194123       7.17131746       4.82834527  F        0
H       26.95194124       4.82834452       7.17131883  F        0
H       25.19630608       9.34383456       6.60185911  F        0
H       25.19630604       6.60185806       9.34383627  F        0
H       26.93058105       7.58756876       1.24433203  F        0
H       26.93058086       1.24433163       7.58757011  F        0
H       26.95192867       1.27083937      -1.07240246  F        0
H       25.19622735      -0.50276655      -3.24494277  F        0
H       26.93057835       4.85486043      -1.48866112  F        0
H       26.95192866      -1.07240650       1.27083969  F        0
H       25.19622853      -3.24494603      -0.50276481  F        0
H       26.93057847      -1.48866524       4.85486109  F        0
H       17.77043356       2.85994955      -4.28747201  F        0
H       20.10952426       2.85994950      -6.62656333  F        0
H       17.49833355      -0.50278089      -2.85477948  F        0
H       21.54221652      -0.50278066      -6.89866328  F        0
H       17.77043326      -4.28747560       2.85995000  F        0
H       20.10952426      -6.62656664       2.85995001  F        0
H       17.49833238      -2.85478383      -0.50277915  F        0
H       21.54221602      -6.89866750      -0.50277915  F        0
Fe      20.70217417       3.45568536       1.57287608  T        0
Fe      20.39098140       4.34716610       4.60488759  T        1
O       19.37644333       4.34877764       2.85046356  T        2
O       19.75280317       2.94198506       3.28317603  T        3
