145
Lattice="20.102 0.0 0.0 0.0 19.731 0.0 0.0 0.0 13.253" Properties=species:S:1:pos:R:3:move_mask:L:1:tags:I:1 i=77 E=-3472.0240129048 regions="_JSON [\"Active\"]" n_terminators=36 energy=-965.4256199020335 pbc="F F F"
O       10.09817179      11.07663417       4.33202062  T        0
O       12.33869808      11.11066187       2.89516809  T        0
O       12.16724799      12.59432774       5.07376175  T        0
O        8.09847377       9.92039362       8.95629064  T        0
O       12.27369969       9.87942775       5.26038032  T        0
O       16.73661612       9.34879090       7.04533122  T        0
O       13.60779735      11.07694053       0.48980349  T        0
O       13.47921126       8.95246480       2.05217235  T        0
O        5.00732654      10.85179698       4.20539501  T        0
O       15.01189051      11.15697050       2.73540208  T        0
O        5.53627159       7.32692760       1.68006911  T        0
O       16.32708557       7.20189618       5.41228831  T        0
O        5.71805066      10.42133220       7.84336784  T        0
O        3.94508791       9.35853904       0.79681833  T        0
O       14.24543519       8.57580392       6.41857170  T        0
O        6.20006453       9.88834674       1.89842182  T        0
O       15.96484152       9.66847702       4.60949987  T        0
O        7.37876273      12.41156512       8.41558314  T        0
O       12.20513371       7.19340652       5.41789384  T        0
O       12.61210160       2.46743911       5.38338633  T        0
O        7.97496476      10.71484195       6.37268407  T        0
O       11.79535414       8.51709870       7.61328171  T        0
O        7.47867694      11.32064512       3.47566958  T        0
O       17.65597557      11.39292379       3.35197091  T        0
O        8.38756318       8.88925406       4.09050052  T        0
O        5.47611720      12.45629648       1.99083825  T        0
O       15.81856391      12.31114603       5.01161852  T        0
O       10.24727734       2.35877968       4.23434835  T        0
O       10.17992095       6.95382182       3.67727993  T        0
O       12.39947506       2.86461274       2.69541929  T        0
O       12.49413402       6.70824082       2.77817988  T        0
O       11.59163627       4.74777768       4.44252418  T        0
O       16.57651813      13.10194676       7.50994826  T        0
O       14.08671996       6.69832508       0.38073466  T        0
O        5.15274654       6.76306311       4.28358716  T        0
O       15.43616831       6.84058147       2.91686577  T        0
O        5.94787170      14.90675541       1.11061669  T        0
O       15.89499089      14.84998992       5.57424260  T        0
O        3.61761554      13.83612029       0.58671468  T        0
O       14.03593161      13.30097707       6.80480741  T        0
O       11.80756053      14.83552456       6.63326009  T        0
O        8.73821710       6.73209294       5.77015335  T        0
O       11.59649812      12.30790893       7.54360889  T        0
O        7.57191435       6.49264104       3.30116404  T        0
O       18.02802253       6.38012926       3.42525839  T        0
O        5.64095478       4.85316652       2.35030338  T        0
O       16.20283487       4.77365880       4.53605313  T        0
Si      11.69443068      11.17030714       4.41408453  T        0
Si      13.65008623      10.59474519       2.05524459  T        0
Si       5.46701007       8.75910717       0.92253794  T        0
Si      15.79486024       8.67118865       5.88083881  T        0
Si       7.31594960      10.86431511       7.83945050  T        0
Si      12.62446556       8.58932910       6.19591309  T        0
Al       8.50611840      10.57999374       4.76309800  T        0
Si       5.95584672      11.21510104       2.91830796  T        0
Si      16.13499794      11.13700597       3.92353980  T        0
Si      11.70283863       3.12332652       4.17487013  T        0
Si      11.65943732       6.34222129       4.14472107  T        0
Al      14.04620196       7.24643387       2.01402675  T        0
Si       5.22032133      13.48648400       0.72991315  T        0
Si      15.57623603      13.37124941       6.22886214  T        0
Si      12.42615106      13.30557114       6.52158517  T        0
Si       8.66561634       7.28717992       4.23482086  T        0
Si       5.98469627       6.35180870       2.91712841  T        0
Si      16.48192121       6.31882900       4.02847258  T        0
O        9.95696552       8.80995107      -3.95803589  T        0
O        7.51143251       8.46761649      -2.92637564  T        0
O        8.29838087       6.98530774      -4.97787066  T        0
O        7.78512285       9.61962911      -5.34019817  T        0
O        6.40389859       8.70039241      -0.40796655  T        0
O        6.62646583      10.76283532      -2.04769205  T        0
O        4.82666036       8.71935346      -2.35915048  T        0
O       15.08171028       8.96016886      -4.25702776  T        0
O       14.47613630      12.37507514      -1.66985000  T        0
O        5.81877438      10.91565140      -6.60838431  T        0
O       16.10630862      10.88586796      -0.07636716  T        0
O       14.31367897       9.73711041      -1.76336040  T        0
O        7.75882031      12.29518271      -5.29016081  T        0
O        8.32235680      11.14151826      -7.55499932  T        0
O       11.48780759       8.86320374      -6.05313845  T        0
O       12.61462727       8.67475364      -3.55454138  T        0
O       11.50883287      10.95223041      -4.31077229  T        0
O       14.40440598       7.14000045      -2.27761595  T        0
O        9.83795623      12.99457942      -3.71942516  T        0
O        7.32269022      13.20708091      -2.83162731  T        0
O        8.14385694      14.85967150      -4.78500991  T        0
O        5.82247230      12.85436900      -0.64880965  T        0
O        4.77047213      12.22442718      -3.07775677  T        0
O       14.91257031      12.91434698      -4.27167367  T        0
O       14.80814794       4.68064808      -1.24410025  T        0
O       16.52322901       6.76842358      -0.86314460  T        0
O       11.39946342      13.21297795      -5.78828072  T        0
O       12.47348097      13.21429946      -3.30237341  T        0
O       14.43442128      14.85416372      -2.37906752  T        0
Si       8.39550966       8.49148886      -4.32652965  T        0
Si       6.37053045       9.15815709      -1.99441362  T        0
Si      14.62841543      11.01056364      -0.79504916  T        0
Si       7.41975266      10.97519148      -6.19291580  T        0
Si      11.42667047       9.32845867      -4.47166958  T        0
Si      14.13432391       8.61129275      -2.94091373  T        0
Si       8.29537195      13.34557090      -4.16161433  T        0
Si       6.14074752      12.30769615      -2.15603184  T        0
Si      14.92595192       6.31116641      -0.94433721  T        0
Si      11.31955945      12.56976656      -4.27657378  T        0
Si      14.05995662      13.34367303      -2.91472893  T        0
H        8.32625906       8.98649408       8.81306681  F        0
H       16.63692148       9.14969546       7.98396390  F        0
H        4.05829635      10.79936776       4.41071281  F        0
H        5.06295559      10.84500939       7.26028495  F        0
H        3.12887899       8.92429365       0.49683426  F        0
H        8.21123678      12.90527891       8.50458507  F        0
H       12.40451338       1.61243810       5.80455660  F        0
H       11.59562866       9.14594745       8.33522472  F        0
H       18.17502404      10.93300163       2.66186473  F        0
H        9.34208224       2.56113689       3.94132409  F        0
H       13.35632229       2.80449888       2.51220488  F        0
H       16.41758072      12.40218664       8.16986141  F        0
H        4.34567170       7.30371036       4.24836906  F        0
H        5.67587981      15.71242072       0.63388066  F        0
H       15.72702255      15.71242072       5.99260349  F        0
H        2.98936131      13.24709329       0.14601228  F        0
H       12.17714149      15.71306863       6.40017283  F        0
H        8.00892554       6.80873427       6.39739775  F        0
H       11.48335560      12.31405055       8.50556348  F        0
H       18.37141860       7.12308619       2.89672377  F        0
H        5.99116592       4.00312854       2.66051272  F        0
H       16.04230867       4.00312851       3.96597142  F        0
H        7.84356088       6.72376138      -5.79631577  F        0
H        4.52133035       8.52501985      -3.25073397  F        0
H       16.04398914       8.93133647      -4.41074452  F        0
H        5.06295559      10.84500939      -5.99271505  F        0
H       16.97340651      10.80641058      -0.49686596  F        0
H        8.50665683      10.58475679      -8.33525643  F        0
H       12.20788617       8.97653229      -6.69697499  F        0
H        8.48702655      15.71151028      -4.45236824  F        0
H        4.26454119      12.99430937      -3.37720033  F        0
H       15.75661379      12.42699387      -4.24840076  F        0
H       14.42640568       4.01828351      -0.63391236  F        0
H       17.11292418       6.48361095      -0.14604398  F        0
H       12.09335996      12.92196996      -6.39742946  F        0
H       14.11111957      15.72757569      -2.66054442  F        0
Fe       8.36710317       9.72024319       2.10146964  T        0
Fe      11.40641648       8.36631481       2.04039005  T        1
O       10.19823269       9.77839745       1.25120176  T        2
O        9.55565009       8.42817464       1.07748631  T        3
