148
Lattice="24.397 0.0 0.0 0.0 24.397 0.0 0.0 0.0 24.397" Properties=species:S:1:pos:R:3:move_mask:L:1:tags:I:1 i=41 E=-6943.8331748197 regions="_JSON [\"Active\"]" n_terminators=24 energy=-1049.5106254246195 pbc="F F F"
O        9.59149432      14.62601540      -0.05388920  T        0
O       12.28638636       9.49850798       2.54247097  T        0
O       14.82849059      20.93101990       6.13818805  T        0
O       12.20804044      15.76471168       8.73880003  T        0
O        9.79020814      18.52115311       3.61604662  T        0
O       15.60964800       9.45476878       6.22299480  T        0
O       18.35270053      14.85567779       8.86666883  T        0
O       21.10429550      12.25358525       3.50367077  T        0
O       21.02583546      15.63644446      -0.06416448  T        0
O       18.25195777      21.09512728       2.59435024  T        0
O       14.62736998       9.64470295      -0.07361259  T        0
O        9.52714225      12.30823341       2.49254253  T        0
O       21.06915412      14.85442259       6.14224555  T        0
O       15.66507256      12.18538727       8.87705681  T        0
O       18.37869366       9.42672861       3.43679506  T        0
O        9.59147597      15.72964469       6.13883944  T        0
O       14.76161647      18.31485432       8.71459410  T        0
O       12.07595402      20.81688254       3.58035249  T        0
O       15.61262656      20.95982323      -0.13942059  T        0
O       21.09386656      18.31461846       2.63980665  T        0
O       11.63854596      13.82752153       1.80428295  T        0
O       13.88952709      11.56100904       1.96724761  T        0
O       13.05453004      20.29233799       8.06823343  T        0
O       10.20747397      17.45961014       8.11456717  T        0
O       10.17266908      20.40746740       5.44931679  T        0
O       19.26946076      16.50843568       1.80097507  T        0
O       16.49768009      19.23237140       1.77436184  T        0
O       10.27495723      10.25676569       0.94219479  T        0
O       11.44436082      16.59177598       4.44821448  T        0
O       14.09413236      19.18262413       4.26983838  T        0
O       14.06735792      16.44202249       6.94271620  T        0
O       19.26342559      14.05786976       4.29409284  T        0
O       16.60430275      11.21314201       4.43603457  T        0
O       16.55246935      13.97573153       7.05264143  T        0
O       11.91151594      11.91850209       3.66088047  T        0
O       12.31835156      21.83418609       6.04708304  T        0
O       12.22575940      18.30285570       9.59399614  T        0
O        8.73312186      18.26564121       6.07826722  T        0
O       18.49391442      18.48106298       3.34138172  T        0
O       12.13275550       8.67496438      -0.02539071  T        0
O        8.68307804      12.09963719      -0.04955813  T        0
O       12.10453622      14.78672172       6.25329847  T        0
O       12.28501212      18.29821268       2.58031741  T        0
O       15.70322289      18.39462382       6.21442075  T        0
O       18.47532165      15.61593226       6.26728763  T        0
O       18.49620933      12.05208805       2.80004163  T        0
O       14.90997040      12.06734427       6.26568857  T        0
O       10.47818255      16.52231805       1.95488735  T        0
O       14.00313133      10.42034557       4.38632892  T        0
O       14.09865508      22.78930533       7.83055987  T        0
O       10.51700083      16.47956395      10.61899236  T        0
O        7.75809402      20.02045895       4.27091530  T        0
O       10.52349426      22.82235514       4.28908917  T        0
O       20.03885317      13.93947161       1.72653714  T        0
O       16.59622533      20.06176059       4.33302105  T        0
O       16.59418063      10.45989957       1.85735963  T        0
O       10.49052368      14.07986594       4.24407693  T        0
O        7.70144230      16.46030336       7.79802827  T        0
O       14.07070825      20.02475466      10.56941402  T        0
O       13.95829238      20.13638697       1.76474357  T        0
O       20.08209608      16.59676187       4.37960659  T        0
O        7.74300342      10.45927639       1.88845324  T        0
O       16.57547062      16.53027262       7.88804690  T        0
O       13.99752876      13.95166865       7.91023820  T        0
O       10.47031090       7.72013515       1.88496057  T        0
Al      10.87544799      15.20310534       0.90671783  T        0
Si      13.01517087      10.82377326       3.15936494  T        0
Si      13.56383829      21.45733358       7.03968598  T        0
Si      11.28305076      17.00855285       9.26711034  T        0
Si       9.10036194      19.30473909       4.88132618  T        0
Si      19.69146155      15.26151668       0.83164320  T        0
Si      17.48401923      19.70187213       3.01484686  T        0
Al      15.23091516      10.88980169       0.92959217  T        0
Si      10.88359203      13.03102818       3.05273798  T        0
Si       9.06188764      16.98686711       7.04790602  T        0
Si      13.51688271      19.23839869       9.24031162  T        0
Si      11.26395213      21.47631966       4.86291038  T        0
Si      15.25212290      19.71163565       0.84998242  T        0
Si      19.73849496      17.46556685       3.04109826  T        0
Si       9.04818524      11.27173343       1.30631368  T        0
Si      10.90456409      15.27500685       5.27421431  T        0
Si      13.10783565      19.67381247       3.08534898  T        0
Si      15.27919472      17.41563843       7.45128389  T        0
Si      19.72527914      15.27122353       5.27943771  T        0
Si      17.50886971      10.79147161       3.12064952  T        0
Si      15.29319956      13.03693857       7.51743365  T        0
Si      11.28618144       9.02985596       1.32073809  T        0
Si      15.29723609      10.79640599       5.31828540  T        0
Si      19.72697048      13.06259959       3.08286576  T        0
Si      17.49611500      15.23299837       7.51085572  T        0
Si      15.32218671      19.64721384       5.26131011  T        0
Si      10.92249301      17.45151089       3.16569490  T        0
Si      13.09575164      15.23509100       7.47053879  T        0
O       14.75539876      12.14306426      -2.53214594  T        0
O       15.59070060      18.68382897      -2.50738975  T        0
O       12.01463928      14.88873759      -2.58557143  T        0
O       18.25928846      15.69725241      -2.78286281  T        0
O       13.88766789      14.11707232      -0.89873561  T        0
O       16.54101663      16.66399427      -0.98025961  T        0
O       12.92802745      10.17663372      -2.06699519  T        0
O       10.12515526      12.98943471      -2.09335083  T        0
O       12.22144001      15.92284956      -0.06262193  T        0
O       15.42592250      12.45210982       0.10183279  T        0
O       18.41311991      14.96731214      -0.15668701  T        0
O       14.71499414      18.36817512      -0.00478453  T        0
O       12.29664494      12.35865263      -3.45461173  T        0
O       16.44577152      14.09941096      -1.77786084  T        0
O       13.97896348      10.53842418      -4.52377363  T        0
O        7.63141983      13.97249507      -1.65689552  T        0
O       13.99394609      16.62609974      -1.88572570  T        0
O       10.51023706      14.05468961      -4.54780988  T        0
O       14.00931429       7.70460589      -1.69781472  T        0
Si      15.19037321      13.15832775      -1.33451457  T        0
Si      15.24402930      17.55339594      -1.37278523  T        0
Si      12.99955184      15.41262861      -1.41086321  T        0
Si      17.43831666      15.34649587      -1.39618060  T        0
Si      13.43291921       9.05451753      -0.95848771  T        0
Si      11.22292248      13.54812175      -3.15949912  T        0
Si       9.01318918      13.43032138      -0.95270918  T        0
Si      13.47775665      11.27413664      -3.13974079  T        0
H       16.48559112       9.33840607       6.62628668  F        0
H       18.82464116      14.01032609       8.95915608  F        0
H       21.15750258      11.67126816       4.28721909  F        0
H       21.15749781      16.48550533      -0.52720743  F        0
H       18.82463422      21.15752504       1.81198193  F        0
H       21.15748967      14.01033142       6.62630180  F        0
H       16.48560162      11.67124930       8.95913012  F        0
H       18.82463962       9.33839646       4.28720704  F        0
H       16.48550522      21.15749796      -0.52720744  F        0
H       21.15752488      18.82463433       1.81198193  F        0
H       13.68673605      23.15239550       8.63276462  F        0
H        9.66477675      16.80915558      10.95402362  F        0
H        7.34351903      20.83116256       4.61081863  F        0
H        9.66481601      23.15243056       4.61081458  F        0
H        7.34350493      16.80917637       8.63275504  F        0
H       13.68672539      20.83112809      10.95404502  F        0
H        7.34352333       9.66479174       1.48837704  F        0
H        9.66479163       7.34352337       1.48837704  F        0
H       16.48557283      18.82464187      -2.86023677  F        0
H       18.82464171      16.48557294      -2.86023676  F        0
H       13.68673308       9.66480596      -4.85513656  F        0
H        7.34352146      13.68671965      -2.53387758  F        0
H        9.66480591      13.68673318      -4.85513656  F        0
H       13.68671953       7.34352150      -2.53387758  F        0
Fe      13.80546415      13.52535175       1.34878186  T        0
Fe      13.48330583      16.93724433       1.38570213  T        1
O       14.04784429      15.21035635       2.37244349  T        2
O       15.05236844      15.79391999       1.46610758  T        3
