139
Lattice="20.102 0.0 0.0 0.0 19.731 0.0 0.0 0.0 13.253" Properties=species:S:1:pos:R:3:move_mask:L:1:tags:I:1 i=77 E=-3472.0240129048 regions="_JSON [\"Active\"]" n_terminators=34 energy=-928.2512689241697 pbc="F F F"
O       10.05057345      18.89252105       4.03367159  T        0
O       10.01515238      10.55958081       3.96566585  T        0
O        2.27549020      11.35806870       3.95785093  T        0
O        2.27333477      18.25278708       3.95898929  T        0
O       12.20639267      18.34870195       2.59757772  T        0
O       12.20644266      11.24905328       2.60550481  T        0
O       11.83978879      17.19902926       4.98549524  T        0
O       11.56652920      12.46936536       4.91382005  T        0
O        8.57956537       9.72485844       8.22970391  T        0
O       12.52011517      19.84267928       4.73121770  T        0
O       12.54458766       9.90526691       4.83894908  T        0
O        3.82088434      10.65630806       6.01259671  T        0
O        3.83337595      19.01247432       5.98409896  T        0
O        5.90317506      19.13192171      10.80217917  T        0
O        3.09798760       8.85773617       4.07452757  T        0
O        6.08680705      10.57505195      10.69104175  T        0
O       17.02079090      10.64636575       9.18708871  T        0
O       17.12155847      18.95940678       9.05918863  T        0
O        4.90209511      10.80423162       3.60499284  T        0
O        4.90246623      18.73847806       3.57884618  T        0
O        4.06503602      12.20746351       8.15147563  T        0
O        4.13330371      17.38914840       8.05666299  T        0
O       14.43704784      17.07719559      12.10177173  T        0
O       14.54114335      12.50439960      12.06264078  T        0
O        6.07039595      10.54698560       7.47503838  T        0
O        6.07081852      19.12371634       7.46494948  T        0
O        3.76563807       9.48877015       8.36527200  T        0
O        6.01809107      10.12366789       1.23975846  T        0
O        3.74743328      20.10687617       8.37210848  T        0
O        7.97586680      12.33982061       8.06369991  T        0
O        7.89145627      17.18423511       8.01639759  T        0
O        8.19379519      10.92905571       5.89479760  T        0
O        8.19765510      18.66761429       5.93010094  T        0
O        7.50438744      11.09587142       3.31402731  T        0
O        7.51778830      18.52942309       3.33500101  T        0
O        8.11742573       8.72342515       4.46264883  T        0
O       11.73910540      10.54685427       9.74356762  T        0
O       12.07886696      19.04420879       9.31427639  T        0
O        5.95797095      12.68815242       1.92804179  T        0
O        6.02860491      16.91424578       1.88875270  T        0
O       16.01616781      16.99245017       4.52238932  T        0
O       16.30648758      12.49608121       4.53284885  T        0
O       10.14803120      17.11830855       9.73697309  T        0
O       10.05342539      12.69414367       9.73318841  T        0
O        7.41327531      16.84588829      10.83069830  T        0
O        7.55921148      12.87184806      10.63959360  T        0
O       17.80828859      13.16353748       9.42473173  T        0
O       17.88849342      16.47140566       9.40614435  T        0
O        8.48169117      14.77897123       8.95638716  T        0
O        5.82293188      17.48304382      12.89981009  T        0
O        6.14786592      12.19984170      12.82350206  T        0
O       16.59405737      12.48658737       7.21024130  T        0
O       16.48061569      17.07238054       7.20679600  T        0
O        4.72245102      16.80058311      10.57224659  T        0
O        4.87723511      12.91003002      10.56401874  T        0
O       15.14375633      12.58630866       9.43058409  T        0
O       15.25127420      17.05431814       9.54559867  T        0
O       16.06172350      14.76652831       5.89583153  T        0
O       14.19646037      12.85559436       6.14745990  T        0
O       14.04926751      16.48245817       6.33305899  T        0
O       11.98251783      14.79148276       6.07058474  T        0
O       11.75306563      12.37723438       7.71597589  T        0
O       11.73421685      16.98207583       7.60520141  T        0
O        2.17296403      16.47115088       9.66460471  T        0
O        2.26417233      13.28771339       9.91481358  T        0
O       12.63188640      12.96040203      10.19151066  T        0
O       12.71725742      16.61820738      10.04767606  T        0
O        4.07372073      14.82507371       8.87305508  T        0
O       14.48249913      14.79366449      10.80227426  T        0
Si      11.64755101      18.57906494       4.12341844  T        0
Si      11.57429735      11.01617957       4.10420692  T        0
Si       3.54078323      10.41111377       4.41992034  T        0
Si       3.55603154      19.19278452       4.38517881  T        0
Si       4.43915401      10.73784850       7.52258518  T        0
Si       4.44251755      18.89664138       7.49578793  T        0
Si       7.66556481      10.85356491       7.43630155  T        0
Si       7.64278797      18.72920768       7.45933823  T        0
Si       8.45004048      10.33819194       4.40050096  T        0
Si       8.50537567      19.22359066       4.42761148  T        0
Si       6.06672657      11.16416138       2.52335832  T        0
Si       6.09940603      18.42987731       2.51595486  T        0
Al       8.54623509      16.51191683       9.58007263  T        0
Si       8.54430972      13.16043643       9.36522250  T        0
Si       6.01563746      17.53420346      11.25966266  T        0
Si       6.18188106      12.15818001      11.17896741  T        0
Si      16.62054269      12.20770782       8.81715094  T        0
Si      16.66578116      17.39201054       8.80622348  T        0
Si      15.76755392      13.14984929       5.95376047  T        0
Si      15.65512452      16.34075485       5.99141979  T        0
Al      12.53300761      13.07772188       6.34993756  T        0
Si      12.43320144      16.37879795       6.27003531  T        0
Si      11.54554426      12.13077947       9.29675730  T        0
Si      11.62188216      17.45512199       9.18552338  T        0
Si       3.77117263      16.38940632       9.30803105  T        0
Si       3.80921525      13.27841951       9.36788720  T        0
Si      14.19273542      13.19915951      10.61049159  T        0
Si      14.22111945      16.39143015      10.61894089  T        0
O        8.54478696      19.74687995       8.40695566  T        0
O        3.15151903      20.74181344       3.97748587  T        0
O        6.05269217      19.48464919       1.24416277  T        0
O        8.24574195      20.85034385       4.54757417  T        0
H        1.81269882      11.30123319       3.09859993  F        0
H        1.81269882      18.29482316       3.09859994  F        0
H       13.03074803      18.74401529       2.26762503  F        0
H       13.03074804      10.85204106       2.26762503  F        0
H        8.32625906       8.98649408       8.81306681  F        0
H       12.34310542      20.30287261       5.56688324  F        0
H       12.34314048       9.29328245       5.56696388  F        0
H        6.59189912      19.77694965      11.03822749  F        0
H        3.60112680       8.06005012       4.30646574  F        0
H        6.59189033       9.81912404      11.03827922  F        0
H       16.64303307       9.81912404       8.84117322  F        0
H       16.64304187      19.77694965       8.84122497  F        0
H       14.40563884      18.04556895      12.19637069  F        0
H       14.40563885      11.55048737      12.19637067  F        0
H        4.11249823       9.08086468       9.18193973  F        0
H        5.72719027       9.20254625       1.33756862  F        0
H        4.11250309      20.51523557       9.18186357  F        0
H        8.66651872       8.12235896       3.93953912  F        0
H       11.52310774       9.76092419       9.21110646  F        0
H       11.52310955      19.83515307       9.21116341  F        0
H        5.53537813      12.95496052       1.09262639  F        0
H        5.53537813      16.64109584       1.09262638  F        0
H       15.87290964      17.87210703       4.12309272  F        0
H       15.87290964      11.72394929       4.12309273  F        0
H       18.05303808      13.25020103      10.35989921  F        0
H       18.05303809      16.34585533      10.35989921  F        0
H        5.86807409      16.61444052      13.33116226  F        0
H        5.86807409      12.98161584      13.33116226  F        0
H        1.73086688      16.98843832      10.35624453  F        0
H        1.73086689      12.60761804      10.35624453  F        0
H        8.32625906      20.60985804       8.81306681  F        0
H        3.60112680      21.53630199       4.30646574  F        0
H        5.72719026      20.39380587       1.33756863  F        0
H        8.66651872      21.47399316       3.93953912  F        0
Fe      10.32333521      14.08748906       5.01784527  T        0
Fe       8.17238634      15.43813506       6.98045417  T        1
O        8.87537356      15.48910586       5.05295044  T        2
O        8.33211779      14.13232059       5.46347195  T        3
