139
Lattice="20.102 0.0 0.0 0.0 19.731 0.0 0.0 0.0 13.253" Properties=species:S:1:pos:R:3:move_mask:L:1:tags:I:1 i=77 E=-3472.0240129048 regions="_JSON [\"Active\"]" n_terminators=32 energy=-944.875331278051 pbc="F F F"
O       10.10601195       8.18579078       9.23940969  T        0
O        0.04264995       8.27153254      10.48302379  T        0
O       10.18554145      11.27221590       4.02961960  T        0
O        2.39454410      11.38161622       3.87382318  T        0
O        7.81685010       8.50954302      10.52162955  T        0
O       12.55325386      11.51107600       2.79193926  T        0
O        7.84268636       6.90581427       8.41279426  T        0
O       11.95044061      16.84941322       4.70781608  T        0
O       12.22961101      12.51481451       5.15567581  T        0
O        8.13971276       9.52808439       8.05302557  T        0
O       12.28638909       9.82841850       4.90072270  T        0
O        3.80909467      10.56237764       5.93759162  T        0
O        6.52841531       8.63587678      12.81074093  T        0
O        3.53353006      19.41950226       6.14763547  T        0
O        7.00224159      18.92525962      10.84023760  T        0
O        3.35171485       8.87386830       3.83667923  T        0
O        6.28570634      10.64102760      10.98193415  T        0
O        5.04805392      10.92541738       3.61708080  T        0
O        5.17983120       8.32481248      10.44669196  T        0
O        3.90011521      12.32838889       7.98873915  T        0
O        4.15968788      17.39046418       7.86331147  T        0
O        6.06174955      10.97961783       7.25408940  T        0
O        5.97298602      19.31936270       7.39755295  T        0
O       14.24421123       8.88476256       6.54385384  T        0
O        4.07297521       9.68699373       8.42449384  T        0
O        5.96916315      10.12964697       1.19322935  T        0
O        3.64956997      19.81718365       8.70454280  T        0
O        8.31191714      12.16747089       7.97194638  T        0
O        7.95820984      17.54777923       7.74026943  T        0
O       12.63693063       7.18790511       5.25822536  T        0
O        8.20548321      10.75418792       5.72365279  T        0
O        1.47622529       8.66166574      12.70037845  T        0
O        7.78544335      19.20303738       5.54615706  T        0
O       11.79343983       8.77241492       7.31282213  T        0
O        7.65426137      10.95748970       3.14914272  T        0
O        2.58995563       8.32342758      10.22817695  T        0
O       12.63830710       8.18261974       9.86151623  T        0
O        0.85740632      19.07428217      10.64701562  T        0
O        9.23996053       8.89475090       4.03149453  T        0
O        1.48084168      10.60454220      10.80568190  T        0
O       11.34938708      10.52387736       9.26042458  T        0
O       11.96720524      18.99625246       9.45443240  T        0
O        6.12107426      12.68259567       1.82624079  T        0
O        3.90765507       6.98835934       8.44475160  T        0
O       10.17100874      16.92794441       9.46265470  T        0
O       10.18939823      12.89198848       9.74388557  T        0
O        7.25333414      16.42077121      10.28260318  T        0
O        7.68070632      12.91137943      10.50358265  T        0
O        8.30815555      14.69744169       8.76470083  T        0
O        6.23382124      17.07940663      12.69110641  T        0
O        6.34363440      12.57632740      12.79700363  T        0
O        4.79344508      17.33023933      10.47966355  T        0
O        5.17695273      13.05924160      10.41801598  T        0
O       14.22772866      13.00698487       6.94025644  T        0
O       14.15776738      16.95202604       6.28910421  T        0
O       12.39124052      14.87675946       6.32444527  T        0
O        1.60595800      17.10712028      12.30414032  T        0
O        1.32555046      12.49984237      12.62974965  T        0
O       11.81342576      12.69003972       7.75392546  T        0
O       11.73103784      17.30611160       7.32544871  T        0
O        2.30785495      16.90907778       9.74023582  T        0
O        2.19043137      13.11950089      10.20408891  T        0
O       12.79046861      12.39292605      10.31095886  T        0
O       12.83675589      16.43333912       9.47932840  T        0
O        4.24432461      15.07237665       9.17594984  T        0
Si       8.49127095       8.28595272       9.04609285  T        0
Si      11.81006465      11.24189940       4.23219895  T        0
Si       3.65643855      10.42890141       4.32478536  T        0
Si       6.42786283       9.01793619      11.21368211  T        0
Si       4.43326861      10.92082933       7.41257579  T        0
Si       4.38389892      18.98095504       7.47674227  T        0
Si       7.66791090      10.85119363       7.24761172  T        0
Si       7.58788172      19.02284892       7.17735932  T        0
Si      12.71510920       8.67069701       5.97565901  T        0
Si       8.78087797      10.47304328       4.22850084  T        0
Si       1.38232995       9.00185991      11.08032819  T        0
Si      11.52471994       8.93476110       8.92009932  T        0
Si       6.17918581      11.16659049       2.46205218  T        0
Si       3.95267955       8.35524778       9.35698918  T        0
Al       8.56997469      16.49317553       8.98370244  T        0
Si       8.68818669      13.15837891       9.19893905  T        0
Si       6.29437733      17.46814776      11.10905365  T        0
Si       6.35191125      12.22806294      11.20820345  T        0
Si      12.66074329      13.28858582       6.51418473  T        0
Si      12.57551166      16.49071848       6.19016224  T        0
Si       1.16225881      17.46117752      10.77020573  T        0
Si       1.15084569      12.18566580      11.01998864  T        0
Si      11.56513837      12.13031927       9.25668023  T        0
Si      11.62734068      17.44787426       8.96927703  T        0
Si       3.84262892      16.67396363       9.29846862  T        0
Al       3.69603569      13.32390640       9.39441217  T        0
O        8.45262820      20.24367745       7.91541042  T        0
O        1.77765928      12.78066984      15.24535150  T        0
O        1.43617397      16.96345111      14.97678182  T        0
O        5.78485855      12.64466474      15.43616426  T        0
O        5.98029054      16.99258879      15.37461728  T        0
O        5.56342447      14.82775443      13.98211287  T        0
O        3.82230131      16.86998452      13.74026710  T        0
O        3.83385088      12.82423391      13.52472136  T        0
O        2.08314542      14.83908113      13.61597706  T        0
Si       5.38322456      16.44642813      13.94825686  T        0
Si       5.36437128      13.21157098      13.95339708  T        0
Si       2.24160425      16.44899240      13.64393838  T        0
Si       2.25141365      13.23373370      13.73793979  T        0
O       -0.42742410      12.29529399      10.56485392  T        0
O       -0.15239152      16.60763147      10.28115004  T        0
H       -0.89571882       8.42972886      10.66739018  F        0
H        1.81269882      11.30123319       3.09859993  F        0
H       13.03074804      10.85204106       2.26762503  F        0
H        7.84356088       6.72376138       7.45668423  F        0
H       11.77741499      17.76721957       4.45015374  F        0
H        6.01931354       8.91222751      13.59787507  F        0
H        3.46536401      19.01504758       5.26900440  F        0
H        6.59189912      19.77694965      11.03822749  F        0
H        3.60112680       8.06005012       4.30646574  F        0
H       15.03932990       8.88569483       5.99268334  F        0
H        5.72719027       9.20254625       1.33756862  F        0
H        4.11250309      20.51523557       9.18186357  F        0
H       11.89104871       6.82542533       4.74838322  F        0
H        2.15673527       8.97653516      13.32343298  F        0
H        8.50665683      19.01129957       4.91774358  F        0
H       13.54926599       8.42132791      10.11787432  F        0
H        1.47196681      19.83515306      10.66828905  F        0
H        8.66651872       8.12235896       3.93953912  F        0
H       11.52310955      19.83515307       9.21116341  F        0
H        5.53537813      12.95496052       1.09262639  F        0
H        4.51576461       6.77574371       7.71911054  F        0
H       14.91456245      13.24933472       6.30897701  F        0
H       14.91456244      16.34672163       6.30897701  F        0
H       13.32025657      13.20375310      10.31771692  F        0
H       13.32025658      16.39230324      10.31771692  F        0
H        8.32625906      20.60985804       8.81306681  F        0
H        1.72627225      11.82883678      15.42933042  F        0
H        1.72627225      17.76721957      15.42933043  F        0
H        5.82176689      11.72394931      15.75639142  F        0
H        5.82176689      17.87210706      15.75639142  F        0
H       -1.04605969      13.03623234      10.65268580  F        0
H       -1.04605969      16.55982401      10.65268579  F        0
Fe       6.29273885      14.69633710       9.73236186  T        1
