144
Lattice="20.102 0.0 0.0 0.0 19.731 0.0 0.0 0.0 13.253" Properties=species:S:1:pos:R:3:move_mask:L:1:tags:I:1 i=77 E=-3472.0240129048 regions="_JSON [\"Active\"]" n_terminators=34 energy=-970.3439747246706 pbc="F F F"
O       10.01645076       8.51514313       9.20964354  T        0
O        7.71979387       8.35804862      10.54993907  T        0
O       17.95333098       8.44267211       9.23765674  T        0
O        8.01286723       6.89119419       8.39689760  T        0
O       11.50736001      17.33906101       5.27499948  T        0
O       11.50154287      12.20114702       5.30113157  T        0
O        7.75079198       9.59874928       8.22884556  T        0
O        6.58857481       8.51869707      12.91364053  T        0
O       16.72754193       8.91342345       7.00494203  T        0
O        6.40200921      18.95781679      11.28702526  T        0
O        6.39281356      10.55799596      11.16486862  T        0
O       16.57452838      10.73264864       9.04261642  T        0
O       16.52285345      18.85295150       8.90138741  T        0
O        4.98878656       8.27627246      10.81563480  T        0
O       15.21622879       8.43490578       9.18881365  T        0
O       14.39220749      17.32489519      12.18560566  T        0
O       14.23193207      12.21943683      12.07577775  T        0
O        5.84355240      10.75025745       6.67824236  T        0
O        5.79796033      18.93762034       6.64788172  T        0
O       16.17414817      19.11826759      13.20031814  T        0
O       16.13448058      10.63699736      13.21914757  T        0
O       14.35920776      19.86292035      11.34043849  T        0
O       14.40948357       9.67392361      11.34846662  T        0
O        7.94176284      12.18181413       7.65923070  T        0
O        7.85102665      17.38366600       7.55205814  T        0
O        8.32245722      10.21405534       5.79644625  T        0
O        8.24411395      19.44464333       5.74340281  T        0
O       11.80775224       8.39618371       7.22471010  T        0
O       12.62105530       8.42881606       9.80316206  T        0
O       11.57978470      10.60896193       8.67624829  T        0
O       11.58006416      18.94637706       8.64691111  T        0
O       16.18108772      17.03309377       4.50983750  T        0
O       14.30025279       6.94716284      11.23735050  T        0
O       16.29295061      12.16253958       4.88866840  T        0
O        9.93150288      16.94075220       9.49932898  T        0
O        9.89450268      12.59059984       9.47231377  T        0
O        7.20676345      16.59752940      10.31386265  T        0
O        7.44184295      12.80669431      10.25622215  T        0
O       17.11807944      13.16434377      10.09957640  T        0
O       17.84892942      16.57439769       9.43226212  T        0
O        8.44022153      14.67541764       8.60478980  T        0
O        5.88089681      16.72261518      12.63148978  T        0
O        5.86061439      12.89671593      12.36611959  T        0
O       16.34971114      12.85255543       7.44469859  T        0
O       16.45285210      16.80622982       7.20054225  T        0
O        4.57946312      17.37587136      10.36255505  T        0
O        4.82407976      12.20578633       9.93207452  T        0
O       14.68862329      12.60602073       9.46565741  T        0
O       15.10465862      16.65877168       9.47748953  T        0
O       15.75404880      14.72300430       5.65656735  T        0
O       14.00267631      12.76159289       6.11191656  T        0
O       14.02677323      16.75095873       6.06623315  T        0
O       12.26746830      14.77430084       5.71164422  T        0
O       11.87325353      13.08991727       7.70790871  T        0
O       11.89925008      16.47750697       7.68994770  T        0
O       12.22054889      12.63162839      10.35150428  T        0
O       12.29960454      16.92209090      10.30470779  T        0
O       13.77775951      14.65894621      11.06559681  T        0
Si       8.38820229       8.34256187       9.06110980  T        0
Si       6.40690170       8.93411819      11.33997730  T        0
Si      16.58956297       9.13754920       8.62534200  T        0
Si      14.64339936      18.86528294      12.60249382  T        0
Si      14.61666034      10.70362660      12.58125689  T        0
Si       7.43980153      10.71390138       7.08567134  T        0
Si       7.41007219      18.85579058       7.04085214  T        0
Si      11.50693971       8.95960581       8.73872538  T        0
Si      14.13947883       8.36231366      10.42120710  T        0
Al       8.26416748      16.40985002       8.93269438  T        0
Si       8.34465259      13.12042074       8.92923864  T        0
Si       6.05943041      17.37808448      11.13227742  T        0
Si       6.12283166      12.12979499      10.95906906  T        0
Si      16.24110342      12.32673475       8.98967397  T        0
Si      16.45478263      17.21573752       8.80202597  T        0
Si      15.60331546      13.14125255       6.01706635  T        0
Si      15.61489367      16.33908126       5.89028811  T        0
Si      12.44524021      13.22392444       6.17572679  T        0
Si      12.45670886      16.34004056       6.16620588  T        0
Si      11.43068348      12.17303744       8.94975391  T        0
Si      11.44191917      17.37647994       8.96042066  T        0
Si      13.82744932      13.09935101      10.76169616  T        0
Al      13.99222000      16.38847623      10.77208712  T        0
O       10.00120886      21.03971209       9.21239779  T        0
O        7.68558849      21.17040876      10.52622903  T        0
O       17.96626870      21.11867614       9.23451014  T        0
O        8.01023565      22.67637252       8.39419894  T        0
O        7.74258392      19.96757213       8.19862628  T        0
O        6.59540595      21.06925656      12.91561421  T        0
O       16.71456782      20.80162479       7.00532678  T        0
O        4.96195128      21.22255482      10.85381717  T        0
O       15.23609266      21.16370758       9.24042376  T        0
O       11.75975642      21.17509591       7.21451183  T        0
O       12.61818035      21.13284993       9.77349415  T        0
O       14.20601196      22.60820536      11.27813648  T        0
Si       8.37170308      21.20642422       9.04002747  T        0
Si       6.40133836      20.58632919      11.35316411  T        0
Si      16.58397217      20.46096154       8.61588001  T        0
Si      11.48938873      20.58828414       8.73095745  T        0
Si      14.11743184      21.19226771      10.44147046  T        0
O       13.59728945      19.43411514      13.74438122  T        0
O       13.56389438      10.19039313      13.72812091  T        0
O        6.01661111      12.02501845      14.84751180  T        0
O        5.93817921      16.99339527      15.35008126  T        0
O        5.48594285      14.66405372      14.27710605  T        0
O        3.60457777      16.60161588      14.10868093  T        0
O        3.63636399      12.71657357      13.89285817  T        0
Si       5.22910665      16.27236943      14.05640754  T        0
Si       5.24547422      13.10198739      13.87425143  T        0
H       18.28958667       8.42947104      10.15436836  F        0
H        7.84356088       6.72376138       7.45668423  F        0
H       11.77741499      17.76721957       4.45015374  F        0
H       11.77741500      11.82883679       4.45015372  F        0
H        6.01931354       8.91222751      13.59787507  F        0
H       16.07044731       8.91222497       6.28158540  F        0
H        4.52133035       8.52501985      10.00226603  F        0
H        5.06295559      10.84500939       7.26028495  F        0
H        5.06295559      18.75104696       7.26028496  F        0
H       16.97340650      18.78964577      12.75613404  F        0
H       16.97340651      10.80641058      12.75613404  F        0
H        8.50665683      10.58475679       4.91774357  F        0
H        8.50665683      19.01129957       4.91774358  F        0
H       12.20788617       8.97653229       6.55602501  F        0
H       15.87290964      17.87210703       4.12309272  F        0
H       14.56690736       6.77574372      12.16034191  F        0
H       15.87290964      11.72394929       4.12309273  F        0
H       18.05303808      13.25020103      10.35989921  F        0
H       18.05303809      16.34585533      10.35989921  F        0
H        4.26454119      16.60174699       9.87579966  F        0
H        4.26454119      12.99430937       9.87579967  F        0
H       18.28958667      21.16688107      10.15436837  F        0
H        7.84356087      22.87259074       7.45668424  F        0
H        6.01931354      20.68412461      13.59787507  F        0
H       16.07044730      20.68412712       6.28158542  F        0
H        4.52133035      21.07133226      10.00226603  F        0
H       12.20788616      20.61981982       6.55602502  F        0
H       14.56690736      22.82060840      12.16034191  F        0
H       13.51650675      19.01504758      14.61047976  F        0
H       13.51650676      10.58100877      14.61047976  F        0
H        5.82176689      11.72394931      15.75639142  F        0
H        5.82176689      17.87210706      15.75639142  F        0
H        2.98936131      16.34896307      13.39901228  F        0
H        2.98936131      13.24709329      13.39901228  F        0
Fe      10.49129836      13.39031685      11.31363971  T        1
Fe      10.64095283      16.24051330      11.29427617  T        2
O       10.22120789      14.82047986      12.38515059  T        3
