136
Lattice="24.397 0.0 0.0 0.0 24.397 0.0 0.0 0.0 24.397" Properties=species:S:1:pos:R:3:move_mask:L:1:tags:I:1 i=41 E=-6943.8331748197 regions="_JSON [\"Active\"]" n_terminators=32 energy=-912.293147793264 pbc="F F F"
O       21.67115177       2.61599573       0.07029242  T        0
O       21.88932230       6.17834392       3.52463009  T        0
O       15.56683457       9.68526663       6.24652656  T        0
O       21.00719887      12.46605115       3.52611593  T        0
O       21.00628760       3.56429982      12.50508187  T        0
O       15.53534165       6.32056031       9.75742117  T        0
O       21.85828694      -0.04222939       2.55714785  T        0
O       18.39440688       9.64950065       3.32862291  T        0
O       21.81374475       3.57705966       5.92461825  T        0
O       18.36179542       3.30444886       9.62570210  T        0
O       23.73950924       1.71583667       1.79372886  T        0
O       22.84539619       5.41509517       8.02488315  T        0
O       22.65437302       8.01698744       5.34493279  T        0
O       17.62078121      10.55578982       7.85154015  T        0
O       20.09103996      10.58613114       5.22724719  T        0
O       23.68895125       4.28375241       4.21907342  T        0
O       17.66033881       7.89226089      10.52289510  T        0
O       20.06002141       5.18747122      10.58479274  T        0
O       20.88068912       6.01360386       5.87411948  T        0
O       18.14475505       8.90415141       5.93253639  T        0
O       21.99373491      12.31625157       6.08021762  T        0
O       20.97282274       0.03578519       0.03971193  T        0
O       24.33601240       2.67291593       6.28418077  T        0
O       24.40053851       6.27184263       2.57458341  T        0
O       18.08202107       5.90612630       8.93854599  T        0
O       21.97017628       6.11386355      12.27776028  T        0
O       22.64662979       4.37746673       1.76580133  T        0
O       22.65368719       4.37788063      10.50571815  T        0
O       20.14717764       8.05389798       4.35276507  T        0
O       16.64225065       8.00660326       8.00646419  T        0
O       22.64883960      10.50183511       4.36240120  T        0
O       22.80885946       1.74188709       4.29121894  T        0
O       20.06787352       4.40471844       8.01046981  T        0
Al      23.33755637       3.03289875       0.75884002  T        0
Si      23.67329752       4.87674717       9.31403165  T        0
Si      21.40628585       7.13182615       4.80238869  T        0
Si      16.97623818       9.28162336       7.02124503  T        0
Si      21.39954753      11.48650492       4.79658539  T        0
Si      23.21637698       0.79233976       3.00653762  T        0
Si      19.17620275       9.31905901       4.73976588  T        0
Al      21.47165696       4.88333630       7.15271002  T        0
Si      23.61007397       9.28045294       4.86900116  T        0
Si      23.19800893       3.04055930       5.19136112  T        0
Si      19.15427071       4.71564799       9.29243834  T        0
Si      23.19471341       5.28317620       3.02513031  T        0
Si      21.38893921       4.80399439      11.47257283  T        0
Si      16.96651283       7.02658110       9.30041286  T        0
O       24.60715413       3.60820191       8.80522440  T        0
O       24.56622611       8.74103800       3.64689569  T        0
O       26.30253845       6.72727969       4.26264974  T        0
O       26.32779883       4.22761705       6.73736997  T        0
O       24.50218498       9.83430865       6.12929195  T        0
O       24.65453981       6.05168324       9.93541488  T        0
O       26.30378110       8.05544188       1.82766107  T        0
O       26.22698742       1.76457277       8.01413718  T        0
Si      25.41949773       7.45963220       3.07855683  T        0
Si      25.39592249       3.07989079       7.47653777  T        0
O       24.71168376       2.40844458      -2.80616626  T        0
O       26.26639717       1.81742441      -0.66999699  T        0
O       24.33342405      -0.17338546      -3.55272462  T        0
O       26.51205615       4.18761407      -2.06492962  T        0
Si      25.48641968       3.02930409      -1.48309586  T        0
O       24.60681427      -2.69916149       2.42296829  T        0
O       26.30712089      -0.64159711       1.84999037  T        0
O       24.44853761      -3.70440666      -0.07999170  T        0
O       26.32267845      -1.97938373       4.26818199  T        0
Si      25.41921869      -1.39877717       3.01674479  T        0
O       18.14372484       2.38840037      -3.61801985  T        0
O       20.81771245       2.42087458      -6.24363776  T        0
O       20.10450467       0.71176109      -4.33898225  T        0
O       22.68076075       1.01067910      -1.77661975  T        0
O       18.86813354       1.85611059      -8.06450873  T        0
O       16.30001337       1.87368156      -5.54711609  T        0
O       24.44058158       3.61991072      -0.40585867  T        0
O       18.28931020      -0.08239970      -2.48638548  T        0
O       21.97039767      -0.04708244      -6.15934926  T        0
O       18.32267098       3.45847527      -6.08545011  T        0
O       20.06199006       1.69618004      -1.85439838  T        0
O       22.61193141       1.68116122      -4.34677897  T        0
O       20.15590231       4.30378656      -7.91580375  T        0
O       16.49648714       4.31174630      -4.25806703  T        0
Si      19.12832698       1.18239489      -3.10729580  T        0
Si      21.35814087       1.20093005      -5.28781171  T        0
Si      23.60808467       1.23857308      -3.12195044  T        0
Si      19.54037343       3.01532841      -7.09509067  T        0
Si      21.33431659       1.30459300      -0.91180855  T        0
Si      17.29734287       3.01519052      -4.88410848  T        0
O       18.01525738      -3.43022729       2.45760044  T        0
O       21.00067171      -6.40582406       2.52332299  T        0
O       22.64167825      -1.89225290       0.79534154  T        0
O       20.00869968      -4.47086978       0.96426464  T        0
O       24.36431103      -0.25550026       3.51700503  T        0
O       18.36558267      -2.62459935      -0.12938101  T        0
O       21.90782031      -6.12423343      -0.04972572  T        0
O       20.09739321      -1.88770178       1.67384143  T        0
O       22.61270314      -4.38674032       1.71308798  T        0
Si      21.38676276      -0.95934504       1.27626213  T        0
Si      21.35379477      -5.35649343       1.29126053  T        0
Si      23.59100743      -3.16575800       1.21729719  T        0
Si      19.10507471      -3.13115526       1.24672531  T        0
H       15.43757914      10.38640764       5.57209357  F        0
H       20.10951523      12.72546585       3.23923157  F        0
H       20.10951519       3.23923103      12.72546793  F        0
H       15.43757911       5.57209275      10.38640946  F        0
H       17.77043279      10.38640226       3.23924444  F        0
H       17.77043311       3.23924387      10.38640412  F        0
H       17.22544067      10.92750153       8.65411313  F        0
H       17.22544070       8.65411150      10.92750362  F        0
H       21.54216027      12.99764967       6.60187561  F        0
H       21.54216028       6.60187434      12.99765198  F        0
H       26.95194123       7.17131746       4.82834527  F        0
H       26.95194124       4.82834452       7.17131883  F        0
H       25.19630608       9.34383456       6.60185911  F        0
H       25.19630604       6.60185806       9.34383627  F        0
H       26.93058105       7.58756876       1.24433203  F        0
H       26.93058086       1.24433163       7.58757011  F        0
H       26.95192867       1.27083937      -1.07240246  F        0
H       25.19622735      -0.50276655      -3.24494277  F        0
H       26.93057835       4.85486043      -1.48866112  F        0
H       26.95192866      -1.07240650       1.27083969  F        0
H       25.19622853      -3.24494603      -0.50276481  F        0
H       26.93057847      -1.48866524       4.85486109  F        0
H       19.36968740       1.27081557      -8.65438303  F        0
H       15.74261410       1.27081536      -5.02730892  F        0
H       17.49833355      -0.50278089      -2.85477948  F        0
H       21.54221652      -0.50278066      -6.89866328  F        0
H       19.78593015       4.85484827      -8.63303166  F        0
H       15.76396555       4.85484859      -4.61106623  F        0
H       17.77043326      -4.28747560       2.85995000  F        0
H       20.10952426      -6.62656664       2.85995001  F        0
H       17.49833238      -2.85478383      -0.50277915  F        0
H       21.54221602      -6.89866750      -0.50277915  F        0
Fe      20.70969485       3.48327341       1.58250816  T        0
Fe      20.39662007       4.37090754       4.61044201  T        1
O       19.39544418       4.40852654       2.85019334  T        2
O       19.72589408       2.98892999       3.27904438  T        3
