135
Lattice="20.102 0.0 0.0 0.0 19.731 0.0 0.0 0.0 13.253" Properties=species:S:1:pos:R:3:move_mask:L:1:tags:I:1 i=77 E=-3472.0240129048 regions="_JSON [\"Active\"]" n_terminators=36 energy=-890.0435035021169 pbc="F F F"
O       10.22471827      18.35436940       4.34263592  T        0
O       10.05728596      10.83430025       4.12021915  T        0
O        2.22603628      11.32667292       3.98272114  T        0
O        2.31755825      18.27025397       3.93419675  T        0
O       12.36112999      18.18818266       2.70912320  T        0
O       12.14887695      11.13663018       2.56122575  T        0
O       12.38899219      17.10127634       5.14336640  T        0
O       12.13818223      12.19827510       5.04744940  T        0
O        8.41698284       9.93804036       8.63540848  T        0
O       12.55026939      19.80312877       4.76078403  T        0
O       12.38082119       9.52749838       4.62888253  T        0
O        3.77197983      10.59968100       6.00633939  T        0
O        3.80489814      19.07947557       5.96398718  T        0
O        5.88974165      19.13540403      10.82008435  T        0
O        3.14092420       8.85560747       3.99656508  T        0
O        6.03269858      10.56359156      10.75884392  T        0
O        4.86055138      10.90906026       3.59832992  T        0
O        4.98989559      18.61458559       3.63946654  T        0
O        4.07092833      12.30173694       8.01101110  T        0
O        3.96693187      17.40623412       8.01378723  T        0
O        6.01107126      10.49664048       7.45214313  T        0
O        6.03810120      18.98170523       7.43159634  T        0
O        3.68127560       9.62542940       8.49002309  T        0
O        6.45691429       9.63173854       1.80150480  T        0
O        3.75844090      20.12810678       8.35758061  T        0
O        7.74248165      12.42492540       8.10597519  T        0
O        7.98707552      17.19606065       8.00081418  T        0
O        8.27221594      10.84448437       6.09058474  T        0
O        8.26936659      19.00630815       6.03093459  T        0
O        7.51496833      11.17437607       3.56503308  T        0
O        7.66808468      18.47372252       3.50071053  T        0
O        1.46457081      19.05345830      11.25191421  T        0
O        8.34562902       8.75552269       4.60068493  T        0
O        1.31927513      10.42407306      11.36392139  T        0
O       11.81746585      10.59918400       9.62209958  T        0
O       11.65770320      19.06653431       8.63164859  T        0
O        6.02085587      12.29522099       1.62802949  T        0
O        6.08264740      17.32841989       1.59120101  T        0
O       10.26278939      17.02813851       9.85183352  T        0
O        9.96155918      12.61890030       9.57812936  T        0
O        7.49797822      16.91290478      10.84161525  T        0
O        7.58109435      12.83030198      10.72736981  T        0
O        8.41499861      14.79225882       9.02610357  T        0
O        5.74017833      17.44243531      12.84293451  T        0
O        6.19373354      12.17192241      12.90550663  T        0
O        4.86262899      16.73201224      10.42048396  T        0
O        4.90371991      12.94108013      10.67627528  T        0
O        5.38369769      14.80560988       0.88912749  T        0
O        3.73242252      16.89504096       0.46785826  T        0
O        3.74188980      12.69625351       0.42349171  T        0
O       14.17858315      12.77883541       6.73331372  T        0
O       14.20754825      16.19999656       6.94993855  T        0
O       12.24634489      14.60735236       6.08470872  T        0
O        1.24210149      16.69966977      12.47156748  T        0
O        1.16327969      12.74149147      12.65086536  T        0
O       11.76240070      12.44060964       7.64279457  T        0
O       11.73492147      16.63009745       7.71384643  T        0
O        2.22355881      16.78642793       9.95211803  T        0
O        2.03044643      12.73176473      10.08833543  T        0
O       12.35782751      13.16684747      10.21972774  T        0
O       12.96204188      17.26460365      10.07717899  T        0
O        3.74107449      14.85573758       8.84586184  T        0
Si      11.86641159      18.38837198       4.26777480  T        0
Si      11.68296880      10.93579532       4.12164431  T        0
Si       3.52652027      10.40857861       4.39594058  T        0
Si       3.62349354      19.18150690       4.34296400  T        0
Si       4.39573955      10.74090000       7.50837344  T        0
Si       4.40596535      18.89741379       7.46756733  T        0
Si       7.59263741      10.88242264       7.55679253  T        0
Si       7.64688695      18.74247663       7.50550071  T        0
Si       8.55613937      10.38942936       4.55264216  T        0
Si       8.80333643      19.14253780       4.48384806  T        0
Si       6.17949874      11.02197670       2.64428271  T        0
Si       6.27674975      18.58251545       2.63723369  T        0
Al       8.63786778      16.53879268       9.59430934  T        0
Si       8.45210679      13.16747025       9.39531822  T        0
Si       6.05721480      17.52986547      11.22162820  T        0
Si       6.17340755      12.14180293      11.25410061  T        0
Si       5.31901018      16.39129979       0.48091469  T        0
Si       5.31832879      13.22223064       0.47707976  T        0
Si      12.58993330      13.03636268       6.36743342  T        0
Si      12.63401918      16.16022833       6.44992928  T        0
Si       1.14813946      17.45445512      11.01155384  T        0
Si       1.02245929      12.03866474      11.15749403  T        0
Si      11.49468430      12.17190043       9.23513448  T        0
Si      11.63390479      17.48135934       9.11942473  T        0
Si       3.68851946      16.46068852       9.32542251  T        0
Al       3.59711553      13.16217236       9.57066422  T        0
O        8.34325834      19.64656846       8.69601946  T        0
O        3.34982769      20.72854248       3.83035668  T        0
O        6.47017099      20.00449537       1.82036919  T        0
O        9.20764655      20.70384054       4.16579830  T        0
O        6.02200313      16.46163735      -1.00492818  T        0
O        6.08145600      13.14025212      -0.97756709  T        0
O       -0.55919522      12.19357656      10.69735710  T        0
O       -0.38112571      17.24196092      10.43178814  T        0
H        1.81269882      11.30123319       3.09859993  F        0
H        1.81269882      18.29482316       3.09859994  F        0
H       13.03074803      18.74401529       2.26762503  F        0
H       13.03074804      10.85204106       2.26762503  F        0
H        8.32625906       8.98649408       8.81306681  F        0
H       12.34310542      20.30287261       5.56688324  F        0
H       12.34314048       9.29328245       5.56696388  F        0
H        6.59189912      19.77694965      11.03822749  F        0
H        3.60112680       8.06005012       4.30646574  F        0
H        6.59189033       9.81912404      11.03827922  F        0
H        4.11249823       9.08086468       9.18193973  F        0
H        5.72719027       9.20254625       1.33756862  F        0
H        4.11250309      20.51523557       9.18186357  F        0
H        1.47196681      19.83515306      10.66828905  F        0
H        8.66651872       8.12235896       3.93953912  F        0
H        1.47196499       9.76092419      10.66834598  F        0
H       11.52310774       9.76092419       9.21110646  F        0
H       11.52310955      19.83515307       9.21116341  F        0
H        5.86807409      16.61444052      13.33116226  F        0
H        5.86807409      12.98161584      13.33116226  F        0
H        2.98936131      16.34896307       0.14601228  F        0
H        2.98936131      13.24709329       0.14601228  F        0
H       14.91456245      13.24933472       6.30897701  F        0
H       14.91456244      16.34672163       6.30897701  F        0
H        2.04221098      16.67409347      13.02389096  F        0
H        2.04221098      12.92196288      13.02389096  F        0
H       13.32025657      13.20375310      10.31771692  F        0
H       13.32025658      16.39230324      10.31771692  F        0
H        8.32625906      20.60985804       8.81306681  F        0
H        3.60112680      21.53630199       4.30646574  F        0
H        5.72719026      20.39380587       1.33756863  F        0
H        8.66651872      21.47399316       3.93953912  F        0
H        6.36643797      17.19386972      -1.54340896  F        0
H        6.36643797      12.40218664      -1.54340896  F        0
H       -1.04605969      13.03623234      10.65268580  F        0
H       -1.04605969      16.55982401      10.65268579  F        0
Fe       7.43029898      15.37556637       7.29006181  T        0
Fe       4.71752560      14.04746159       7.17733226  T        1
O        6.08583435      14.76448755       6.22460654  T        2
