136
Lattice="24.397 0.0 0.0 0.0 24.397 0.0 0.0 0.0 24.397" Properties=species:S:1:pos:R:3:move_mask:L:1:tags:I:1 i=41 E=-6943.8331748197 regions="_JSON [\"Active\"]" n_terminators=32 energy=-912.7191599019014 pbc="F F F"
O       21.64383271       2.56438973       0.10598370  T        0
O       21.81278850       6.22168954       3.47886636  T        0
O       15.69825166       9.78086171       6.21355293  T        0
O       20.84459295      12.35732826       3.64673634  T        0
O       15.54995393       6.28470695       9.72405956  T        0
O       21.90317142      -0.15938859       2.61578541  T        0
O       18.29933425       9.75853029       3.50340875  T        0
O       21.95784991       3.42483405       6.37126470  T        0
O       18.42943294       3.31861800       9.68102309  T        0
O       23.74003100       1.63794610       1.94786873  T        0
O       22.66486118       5.50301236       7.95528250  T        0
O       22.76027105       8.12781045       5.47300714  T        0
O       17.67519034      10.50678327       7.90845609  T        0
O       20.22368877      10.40077872       5.30406044  T        0
O       23.44886424       4.26585675       4.34061676  T        0
O       18.87387982      14.13768598       4.26887891  T        0
O       16.31768223      11.44486240       4.17655743  T        0
O       17.64704526       7.87580380      10.53330714  T        0
O       19.98536567       5.36892165      10.65842596  T        0
O       20.88367484       5.90764152       6.12938384  T        0
O       18.18878152       8.81871633       6.01045117  T        0
O       21.99935402      12.29294252       6.11613552  T        0
O       20.91670633      -0.00485048       0.09999645  T        0
O       24.50285789       2.48632515       6.09194296  T        0
O       24.35628281       6.14764177       2.68028477  T        0
O       18.33029417      12.25716867       2.60093581  T        0
O       14.63326624      12.27922740       6.12404741  T        0
O       18.11248601       5.89777464       8.90970607  T        0
O       22.57905017       4.33113232       1.80113565  T        0
O       13.83971643      10.39930699       4.40519944  T        0
O       20.02899344       7.94040466       4.29030715  T        0
O       16.62301133       7.98798749       8.02053653  T        0
O       22.73795829      10.54545001       4.33490137  T        0
O       20.20627965      14.07858637       1.83214170  T        0
O       16.59449721      10.41478474       1.65509350  T        0
O       22.66548001       1.69959887       4.40820393  T        0
O       20.21753703       4.33279715       8.15967537  T        0
Al      23.27178623       2.92251289       0.91154674  T        0
Al      21.47415135       7.08382646       5.03628911  T        0
Si      17.01179271       9.25663672       7.05726293  T        0
Si      21.44717082      11.41224074       4.84701399  T        0
Si      23.17624272       0.73904087       3.16881039  T        0
Si      19.17097108       9.26806094       4.79530077  T        0
Si      21.41476515       4.78258770       7.14175886  T        0
Si      23.69063566       9.29157922       4.84117265  T        0
Si      23.13719752       2.97479523       5.32187449  T        0
Si      17.35371998      11.00224952       2.98719189  T        0
Si      19.18984494       4.74493191       9.35327830  T        0
Si      15.13872884      10.98647733       5.23373027  T        0
Si      19.56876945      13.22127379       3.08159309  T        0
Si      23.07351775       5.23388420       3.08783921  T        0
Si      16.97939163       7.00668985       9.30053930  T        0
O       24.52556990       8.69606985       3.53902076  T        0
O       28.01254220       8.84539241       0.17164680  T        0
O       28.88288745       6.76444285       1.74253031  T        0
O       26.21017178       6.72671541       4.39243052  T        0
O       24.76067936       9.90432756       5.93731652  T        0
O       26.34979389       7.72658213       1.85755262  T        0
Si      27.62597252       7.40173163       0.88185501  T        0
Si      25.37254280       7.35846500       3.11517674  T        0
O       28.01256753       5.92815407      -2.80865376  T        0
O       24.66243745       2.38402149      -2.71078055  T        0
O       26.24289963       1.73619472      -0.61398373  T        0
O       28.92331112       4.39015266      -0.71299527  T        0
O       27.22603852       6.28407935      -0.23871417  T        0
O       24.32439679      -0.18030887      -3.53379076  T        0
O       26.43463344       4.17472409      -1.79464918  T        0
Si      27.64390307       5.18909445      -1.37974543  T        0
Si      25.41889853       2.96596477      -1.35797540  T        0
O       18.25734251       2.52677967      -3.59869738  T        0
O       20.81844131       2.41732655      -6.22840629  T        0
O       15.67160014      -0.16646425      -3.71940177  T        0
O       20.11183272       0.72321313      -4.30064152  T        0
O       22.61710301       0.93520167      -1.76101205  T        0
O       18.86994603       1.83160807      -8.04086219  T        0
O       16.30433014       1.90213118      -5.33086904  T        0
O       24.35543591       3.48940910      -0.28015118  T        0
O       18.12613858       0.02321700      -2.63647912  T        0
O       21.95539771      -0.05410085      -6.14483959  T        0
O       18.32374705       3.46437846      -6.10529537  T        0
O       20.01228942       1.66012559      -1.78845901  T        0
O       22.60787175       1.67359572      -4.31990683  T        0
O       20.16913209       4.27720878      -7.94262401  T        0
O       16.56481697       4.40792727      -4.28025165  T        0
O       13.81422613       1.67596882      -4.31613429  T        0
Si      19.12172609       1.23014936      -3.09977615  T        0
Si      21.35649739       1.19642850      -5.26767887  T        0
Si      23.57628810       1.21015685      -3.07761665  T        0
Si      19.54896233       3.00761836      -7.09436887  T        0
Si      15.11878614       0.84936436      -4.89601986  T        0
Si      21.29478896       1.25202832      -0.86515642  T        0
Si      17.34319103       3.07600704      -4.84874333  T        0
O       22.53566535      -1.93854807       0.61273357  T        0
O       24.31710490      -0.26489476       3.80771679  T        0
O       20.08654072      -1.84972707       1.91511266  T        0
Si      21.37080876      -1.00530065       1.32412366  T        0
O       17.68963366      -1.91958210      -4.26652332  T        0
O       14.61760144      -0.02214610      -6.20489137  T        0
O       16.36639490      -1.89206735      -1.83961265  T        0
Si      16.94621225      -1.00715701      -3.10627586  T        0
H       15.43757911       5.57209275      10.38640946  F        0
H       17.77043311       3.23924387      10.38640412  F        0
H       23.12591797       5.02704618       8.65412107  F        0
H       17.22544067      10.92750153       8.65411313  F        0
H       19.36965547      14.75328399       4.82834093  F        0
H       17.22544070       8.65411150      10.92750362  F        0
H       20.85245744       5.02708867      10.92752556  F        0
H       21.54216027      12.99764967       6.60187561  F        0
H       24.89951425       2.85451703       6.89840128  F        0
H       15.05290853      12.70105704       6.89848521  F        0
H       13.44269068      10.71000821       3.56560630  F        0
H       19.78591980      14.73191782       1.24430354  F        0
H       15.76397041      10.70999753       1.24433830  F        0
H       28.68412771       8.95914275      -0.52719976  F        0
H       29.22534432       7.17131743       2.55494170  F        0
H       26.95194123       7.17131746       4.82834527  F        0
H       25.19630608       9.34383456       6.60185911  F        0
H       28.68420928       6.62630035      -2.86021198  F        0
H       26.95192867       1.27083937      -1.07240246  F        0
H       29.22533941       3.54426653      -1.07238230  F        0
H       25.19622735      -0.50276655      -3.24494277  F        0
H       19.36968740       1.27081557      -8.65438303  F        0
H       21.54221652      -0.50278066      -6.89866328  F        0
H       19.78593015       4.85484827      -8.63303166  F        0
H       15.76396555       4.85484859      -4.61106623  F        0
H       13.44267515       2.53358758      -4.61109248  F        0
H       23.12589418      -2.55519498       1.07214050  F        0
H       24.89950013      -0.79949361       3.24468082  F        0
H       19.54187317      -2.53384464       1.48839915  F        0
H       17.22541613      -2.55520754      -4.82860724  F        0
H       15.05289904      -0.79957238      -6.60212108  F        0
H       16.80916483      -2.53384737      -1.24459400  F        0
Fe      20.70855464       4.15778007       0.83969644  T        0
Fe      19.96259346       6.75303679       2.67360452  T        1
O       19.16634326       5.08662201       1.76107113  T        2
O       19.86928233       6.03706188       0.78763672  T        3
