135
Lattice="20.102 0.0 0.0 0.0 19.731 0.0 0.0 0.0 13.253" Properties=species:S:1:pos:R:3:move_mask:L:1:tags:I:1 i=77 E=-3472.0240129048 regions="_JSON [\"Active\"]" n_terminators=34 energy=-899.0987768545193 pbc="F F F"
O        9.96794993      18.76164618       4.02567345  T        0
O       12.10923463      18.56524095       2.53199013  T        0
O       11.84566743      17.01932927       4.77132731  T        0
O       12.32700186      19.64891874       4.96544400  T        0
O        3.43515210      19.35051760       6.17536642  T        0
O        6.71208847      18.95611973      11.09039081  T        0
O        5.88435587      10.48848533      11.06189979  T        0
O        4.26519835      12.50554597       7.78218110  T        0
O        3.67312139      17.26196422       7.90601326  T        0
O       14.75749204      17.18781615      11.85398934  T        0
O        5.81566718      18.80194421       7.33267307  T        0
O       16.14215879      19.28700607      12.85580880  T        0
O        3.74994375      19.80928827       8.67757736  T        0
O       13.87076952      19.68729842      11.43376108  T        0
O        8.30305162      12.18755716       7.73727752  T        0
O        7.75266019      17.11194875       7.99304668  T        0
O        7.97952985      18.58806689       5.82515091  T        0
O        7.49270719      18.55795004       3.15706472  T        0
O       11.61800053      19.03173845       9.10936289  T        0
O        9.99149461      16.70231546       9.36786148  T        0
O        9.96531392      12.72854653       9.78735684  T        0
O        7.69394283      16.61819709      10.60542452  T        0
O        7.38761936      12.58509308      10.30405944  T        0
O        8.30252850      14.62795773       8.85212348  T        0
O        5.94487266      17.01505145      12.89837132  T        0
O        6.09859532      12.70560198      12.66342619  T        0
O        4.74101242      16.87794277      10.27882763  T        0
O        4.69459373      12.74852895      10.45928391  T        0
O       15.27861498      16.37042798       9.29700092  T        0
O       14.22653029      16.53127867       5.65024682  T        0
O       12.33062731      14.55591796       5.70753718  T        0
O       12.16726616      16.63060605       7.41342060  T        0
O        2.13304797      16.22130902       9.93366127  T        0
O        2.19216408      12.69586263       9.50094799  T        0
O       12.73905169      16.93794285      10.23076197  T        0
O        3.90699900      14.75294449       8.86698090  T        0
O       14.14028395      14.72940548      11.05701947  T        0
Si      11.57917019      18.47879683       4.08837330  T        0
Si       4.19091751      18.76411609       7.50933944  T        0
Si      14.66742892      18.67333922      12.52267628  T        0
Si       7.42535869      18.57637637       7.35316952  T        0
Si       8.42762068      19.17152949       4.37089697  T        0
Si       8.45747385      16.22135898       9.18415051  T        0
Si       8.46387826      13.01949992       9.15381651  T        0
Al       6.11243254      17.26552983      11.21155949  T        0
Si       6.04773271      12.13311295      11.13132289  T        0
Si      12.63351190      16.16976024       5.94144823  T        0
Al      11.57554484      17.24407041       8.88625443  T        0
Si       3.64025041      16.30897849       9.25723645  T        0
Si       3.74247308      13.16770573       9.19374912  T        0
Si      14.21139727      16.29356628      10.56226719  T        0
O       14.16825045      20.70998128      15.60523679  T        0
O        5.36832145      22.41641141      14.82947792  T        0
O        4.02643454      20.53602804      13.41696716  T        0
O        5.98524799      19.82582633      15.16820832  T        0
O        9.23455792      20.69335732      17.17039642  T        0
Si       5.46544783      20.94048884      14.09343938  T        0
O       10.14769495      21.27831176       9.18548932  T        0
O        7.90125159      21.14446332      10.52976261  T        0
O        7.82313293      22.50182383       8.35154763  T        0
O        8.15511458      19.77156001       8.22060351  T        0
O        6.46857931      20.99942770      12.78990901  T        0
O        5.23449437      21.14906714      10.38669814  T        0
O       15.48644008      20.39312926       9.59467034  T        0
O       14.24889993      20.75244939       6.54501794  T        0
O       12.69708086      22.33081509       5.06755168  T        0
O       11.76928386      20.95862639       7.20300910  T        0
O        2.55722886      21.50368846      10.36508637  T        0
O       12.84097294      21.30538038       9.65981308  T        0
O        8.28464893      20.81790843       4.54652361  T        0
O        3.93388647      22.55744502       8.45545362  T        0
O       14.74722031      22.32441182      11.32869887  T        0
Si       8.51817121      21.16993353       9.01180913  T        0
Si       6.51122121      20.58516920      11.20928715  T        0
Si      12.74119858      20.90864040       5.89737526  T        0
Si      11.59465385      20.62994073       8.78268015  T        0
Si       3.89599888      21.24589300       9.44317692  T        0
Si      14.24411012      21.01907161      10.46964971  T        0
O       10.11478179      18.33916214      17.57760339  T        0
O       12.37716464      18.72812776      16.19472322  T        0
O       12.27288330      16.84410744      18.10813351  T        0
O       12.35117444      19.33541888      18.85026549  T        0
O       13.60220970      18.75922775      13.76863745  T        0
O        5.01606877      18.93452850      17.55204664  T        0
O       15.01492731      18.18058462      15.75778552  T        0
O        8.37483527      19.44595963      19.35649206  T        0
O        7.50903103      18.56541329      16.92917847  T        0
O        5.94467595      12.59299618      15.35172825  T        0
O        5.64957153      17.18749853      15.54361457  T        0
O        5.42715612      14.81857567      14.21396394  T        0
O        3.51543950      16.70593360      14.13270793  T        0
O        3.68006353      12.75681431      13.88007040  T        0
Si      11.75066848      18.34230565      17.67486643  T        0
Si      13.73416141      19.12782955      15.37864286  T        0
Si       8.75187332      19.22986157      17.76428566  T        0
Si       6.00515344      18.60807664      16.26876322  T        0
Si       5.15379767      16.43021952      14.16506267  T        0
Si       5.26761305      13.21806839      13.99784015  T        0
H       13.03074803      18.74401529       2.26762503  F        0
H        3.46536401      19.01504758       5.26900440  F        0
H        6.59189033       9.81912404      11.03827922  F        0
H        4.35449611      11.55048736       7.68308178  F        0
H       16.97340650      18.78964577      12.75613404  F        0
H        7.69777211      11.47779022       7.44841170  F        0
H        6.55301950      18.28668004       3.13509397  F        0
H       10.76020325      12.42648900       9.31164420  F        0
H       15.75661380      17.16906248       9.00459925  F        0
H       14.91456244      16.34672163       6.30897701  F        0
H       12.17714150      13.88298772       6.40017283  F        0
H        1.73086688      16.98843832      10.35624453  F        0
H        1.73086689      12.60761804      10.35624453  F        0
H       14.11111956      13.86848064      10.59245558  F        0
H       13.65226955      21.53630200      15.57301841  F        0
H        6.01932000      22.79280763      15.45091456  F        0
H        3.12887898      20.67205847      13.74983427  F        0
H        8.66651872      21.47399316      17.19253912  F        0
H        7.84356087      22.87259074       7.45668424  F        0
H       16.04398914      20.66501564       8.84225549  F        0
H       15.03932989      20.71065726       5.99268335  F        0
H       11.89104871      22.77092679       4.74838323  F        0
H        1.92726146      20.79864952      10.59110356  F        0
H        8.66651872      21.47399316       3.93953912  F        0
H        4.51576461      22.82060840       7.71911054  F        0
H       14.56690736      22.82060840      12.16034191  F        0
H       12.25872462      16.58911350      19.04928408  F        0
H       12.34310542      20.30287261      18.81988324  F        0
H        4.05829635      18.79668859      17.66371282  F        0
H       15.58095514      18.39037197      16.50370227  F        0
H        7.89439933      18.84188441      19.94994329  F        0
H        5.82176689      11.72394931      15.75639142  F        0
H        2.98936131      16.34896307      13.39901228  F        0
H        2.98936131      13.24709329      13.39901228  F        0
Fe      11.93283748      18.72094738      11.25910175  T        0
Fe       8.70699810      18.32320872      11.30792375  T        1
O       10.29512107      18.76486668      12.05104548  T        2
