145
Lattice="24.397 0.0 0.0 0.0 24.397 0.0 0.0 0.0 24.397" Properties=species:S:1:pos:R:3:move_mask:L:1:tags:I:1 i=41 E=-6943.8331748197 regions="_JSON [\"Active\"]" n_terminators=24 energy=-1031.9066144768892 pbc="F F F"
O        9.64914726      14.63431276      -0.22515046  T        0
O       12.27140966       9.47245279       2.59232937  T        0
O       14.89728013      20.84873187       6.24975964  T        0
O       12.24478260      15.69520651       8.78441008  T        0
O        9.68552806      18.42931456       3.68740269  T        0
O       20.96319040      15.69285184       0.02424415  T        0
O       18.33801886      20.84340142       2.53290332  T        0
O       14.79613883       9.56828671       0.00142766  T        0
O        9.67673924      12.08111271       2.63450035  T        0
O        9.62817731      15.69559685       6.18686752  T        0
O       14.81722890      18.23909598       8.81874777  T        0
O       12.02075787      20.98202920       3.63771878  T        0
O       15.81024920      20.69851692      -0.18392586  T        0
O       20.93871105      18.25591598       2.55412374  T        0
O       11.46607825      13.95212225       1.91708410  T        0
O       14.16089819      11.27694360       1.98338710  T        0
O       13.11182660      20.20609353       8.16497175  T        0
O       10.27221423      17.41807881       8.15205589  T        0
O       10.11203001      20.44430669       5.43638535  T        0
O       19.19299998      16.29256797       1.95306217  T        0
O       16.44812565      19.09680642       1.85464735  T        0
O       10.29436274      10.13287224       0.88617578  T        0
O       11.33425972      16.41679274       4.30404136  T        0
O       14.13898945      19.13026806       4.34632979  T        0
O       14.18331369      16.34155306       7.02773736  T        0
O       20.31647220      20.23841802       0.82212408  T        0
O       12.17216278      11.97472735       3.57686493  T        0
O       12.34383331      21.72614452       6.19179552  T        0
O       12.28208078      18.20942324       9.68300402  T        0
O        8.76527898      18.25839467       6.17382220  T        0
O       18.42420954      18.30942012       3.43656680  T        0
O       12.29332760       8.62005214       0.05849559  T        0
O        8.76432704      12.10668190       0.10168520  T        0
O       12.16926747      14.82836465       6.25883722  T        0
O       12.10884686      18.26253354       2.57747973  T        0
O       15.77771937      18.32796976       6.30414843  T        0
O       18.28708785      21.73987248       0.01680802  T        0
O       21.84473292      18.22818211       0.04381714  T        0
O       10.33893956      16.61058775       1.78318426  T        0
O       14.00969395      10.19867717       4.44665900  T        0
O       14.18242598      22.68613816       7.93975924  T        0
O       10.50598943      16.42415088      10.64684621  T        0
O        7.66998565      19.94366897       4.38762816  T        0
O       10.61151079      23.01159479       4.75612845  T        0
O       20.22344629      13.80457427       1.73989831  T        0
O       16.63838593      19.99901712       4.40457300  T        0
O       16.67648624      10.30046382       1.73125408  T        0
O       10.51030584      13.86525766       4.42684900  T        0
O        7.76881514      16.39540896       7.86381324  T        0
O       14.04967018      19.96657220      10.68678040  T        0
O       13.85757343      19.83261404       1.53845540  T        0
O       20.21059386      16.54149783       4.44368611  T        0
O       20.01247523      22.74758789       1.82881564  T        0
O        7.82040491      10.37070613       1.95818550  T        0
O       16.66342249      16.50680525       8.08193819  T        0
O       13.95211354      13.83199535       8.02394199  T        0
O       22.80244056      19.99591187       1.85133156  T        0
O       10.53954159       7.61011348       1.82664952  T        0
Al      10.84042155      15.19856748       0.88403784  T        0
Si      13.14323096      10.74172267       3.15418125  T        0
Si      13.62162235      21.36975342       7.12920880  T        0
Si      11.32271889      16.94223685       9.31434610  T        0
Si       9.07343598      19.28657552       4.94176327  T        0
Si      19.71310857      15.13612353       0.92259195  T        0
Si      17.46351112      19.57010507       3.07556031  T        0
Si      15.32263197      10.80262950       0.94168205  T        0
Si      10.96615100      12.98696585       3.10906369  T        0
Si       9.11095899      16.95406243       7.09616202  T        0
Si      13.56435173      19.16258258       9.33567768  T        0
Si      11.27883538      21.51990503       4.97141199  T        0
Si      15.27559475      19.53748566       0.82109379  T        0
Si      19.69339588      17.34320238       3.10417567  T        0
Si       9.13469940      11.18081788       1.38591614  T        0
Si      10.90457709      15.18302763       5.29448656  T        0
Al      13.05391969      19.69746023       3.13689190  T        0
Si      15.35920214      17.35911254       7.54703633  T        0
Si      21.47621318      19.18661646       1.31535979  T        0
Si      11.33763273       8.96509322       1.34273347  T        0
Si      15.33819109      19.56641315       5.32395355  T        0
Si      10.79279351      17.38847725       3.11236257  T        0
Si      13.14560918      15.17495975       7.51727335  T        0
Si      19.25667708      21.39162288       1.29476577  T        0
O       14.75407967      12.13640320      -2.55240142  T        0
O       15.83353023      18.35753772      -2.57912088  T        0
O       12.05160256      14.67679376      -2.43791402  T        0
O       18.39402723      15.63750947      -2.60186384  T        0
O       14.08191792      14.05638265      -0.81408365  T        0
O       16.52811513      16.39028481      -0.87979044  T        0
O       13.02604896      10.17972740      -1.94851081  T        0
O       10.05906419      12.83613070      -2.11997612  T        0
O       17.62927150      20.29814765      -2.10399228  T        0
O       20.29924720      17.41843441      -1.93685660  T        0
O       12.30830650      15.93654725      -0.03662364  T        0
O       15.66688731      12.08472400      -0.01531371  T        0
O       18.45878340      14.76238854      -0.05932403  T        0
O       14.77658392      18.18707250      -0.09779318  T        0
O       12.24819533      12.21651467      -3.46861375  T        0
O       18.32458109      18.16416912      -3.52020775  T        0
O       16.58865610      13.87182152      -1.73847123  T        0
O       14.05486840      10.46991824      -4.45061965  T        0
O       22.80468264      16.41541210      -1.71342846  T        0
O       16.58235469      19.92677203      -4.57101657  T        0
O        7.53169503      13.66749273      -1.58455384  T        0
O       14.03108622      16.47532623      -1.93429996  T        0
O       10.50942207      14.01530921      -4.48923140  T        0
O       16.46182919      22.71122725      -1.73643792  T        0
O       20.09419871      16.34234408      -4.43039570  T        0
O       14.10198009       7.71198737      -1.73329415  T        0
Si      15.26991523      13.01816132      -1.28142137  T        0
Si      15.33010821      17.32921415      -1.43314766  T        0
Si      13.09846732      15.24721693      -1.33290890  T        0
Si      17.51250909      15.14420636      -1.32101646  T        0
Si      13.54433335       9.02034060      -0.90606380  T        0
Si      11.20383114      13.42349283      -3.11626464  T        0
Si      17.07175974      21.37417929      -1.00206756  T        0
Si      19.29129934      16.90490976      -3.11837745  T        0
Si       9.01355002      13.34091280      -0.94067828  T        0
Si      13.50136593      11.23409391      -3.10599657  T        0
Si      21.48154254      16.94496563      -0.89915343  T        0
Si      17.11134409      19.19901653      -3.19904791  T        0
H       14.73192765      10.71000053       4.85487458  F        0
H       13.68673605      23.15239550       8.63276462  F        0
H        9.66477675      16.80915558      10.95402362  F        0
H        7.34351903      20.83116256       4.61081863  F        0
H        9.66481601      23.15243056       4.61081458  F        0
H       19.78590388      13.44267559       2.53358811  F        0
H       17.05321204      10.71001402       2.53361564  F        0
H        7.34350493      16.80917637       8.63275504  F        0
H       13.68672539      20.83112809      10.95404502  F        0
H       19.78593016      15.76396550       4.85484922  F        0
H       20.83112530      23.15241223       1.48839475  F        0
H        7.34352333       9.66479174       1.48837704  F        0
H       17.05322892      15.76398032       7.58755865  F        0
H       14.73195660      13.44271185       7.58757947  F        0
H       23.15241204      20.83112542       1.48839475  F        0
H        9.66479163       7.34352337       1.48837704  F        0
H       13.68673308       9.66480596      -4.85513656  F        0
H       23.15240156      16.80916493      -2.53384338  F        0
H       16.80913871      20.83112323      -4.85512183  F        0
H        7.34352146      13.68671965      -2.53387758  F        0
H        9.66480591      13.68673318      -4.85513656  F        0
H       16.80916481      23.15240172      -2.53384338  F        0
H       20.83112308      16.80913882      -4.85512183  F        0
H       13.68671953       7.34352150      -2.53387758  F        0
Fe      12.87286511      17.70368311       0.85632249  T        1
