141
Lattice="20.102 0.0 0.0 0.0 19.731 0.0 0.0 0.0 13.253" Properties=species:S:1:pos:R:3:move_mask:L:1:tags:I:1 i=77 E=-3472.0240129048 regions="_JSON [\"Active\"]" n_terminators=36 energy=-937.7283444711809 pbc="F F F"
O       10.35793728       1.22438606       9.08072996  T        0
O       10.11989939       8.79014954       9.14183013  T        0
O        7.65668243       0.93637617      10.46671286  T        0
O        7.98520346       8.65418197      10.72391084  T        0
O       17.90327200       1.48510547       9.26528944  T        0
O        8.43080671       2.58460471       8.10339117  T        0
O        7.92069539       7.56781501       8.26204724  T        0
O        8.17524502      -0.27804885       7.94561851  T        0
O        7.84330716      10.23896059       8.63040109  T        0
O       11.71193591      10.22558915       5.25573000  T        0
O        6.64541363       0.84450504      12.86137968  T        0
O       16.27357621       0.92004737       7.30277033  T        0
O       13.87643440       0.93482347       2.04648392  T        0
O        4.97414849       1.42839533      10.86065854  T        0
O       15.11437023       8.66381993       8.95162690  T        0
O       15.28861514       1.03866879       9.75100964  T        0
O        5.25538079       2.47181168       1.44354619  T        0
O        6.05744096       7.28232905       1.15291254  T        0
O       16.41235442       2.47075629       5.12232982  T        0
O       14.24842032       9.34460058       5.63995834  T        0
O       14.13237047       1.35348152       5.75892531  T        0
O       14.70112951      10.25513408      11.04166442  T        0
O       16.11492100      -0.20374897       4.93888001  T        0
O       12.30198660       7.59368537       5.06093891  T        0
O       11.68980393       2.43971527       5.88892194  T        0
O       12.12092237       8.76006872       7.35299910  T        0
O       12.50516697       0.69525693       7.73120962  T        0
O       12.66925195       8.82427107       9.94141078  T        0
O       12.74491667       1.37351914      10.29971277  T        0
O        8.34132036       9.20026109       4.59274471  T        0
O        8.40965191       0.78711818       4.57162159  T        0
O       11.63729953      10.98136562       8.60403774  T        0
O       14.52524573       7.56180175      11.36466771  T        0
O       14.55130934       2.80344392      11.66366132  T        0
O        9.83323612       2.95256636       3.85126905  T        0
O       10.04492026       7.27185506       3.64549818  T        0
O       12.69200406       3.05071043       3.16921751  T        0
O       12.43661218       6.72751917       2.53149180  T        0
O       11.35395514       5.19271933       4.60270914  T        0
O       13.63107687       3.24001697       0.67850747  T        0
O        4.60779146       7.13346373       3.32766995  T        0
O        4.82845908       3.36246662       3.99928204  T        0
O       15.33654957       3.02205235       2.72820145  T        0
O       14.57627442       5.23265590      12.64442147  T        0
O        5.95788384       6.88590886       6.49849422  T        0
O        5.89751920       3.03962941       7.50605722  T        0
O       16.31051392       3.40524775      13.65172702  T        0
O       16.39669528       7.11942918      13.27101144  T        0
O        7.69439504       5.04305286       7.45599475  T        0
O        8.59080203       6.86316329       5.80597205  T        0
O        7.84078222       3.20426660       5.58098287  T        0
O        7.35322961       6.94140157       3.47432052  T        0
O        7.31051654       2.70188951       3.06781868  T        0
O       17.91981421       3.55768801       3.17845317  T        0
O        5.99824413       4.95117657       2.36789581  T        0
O       16.06385826       5.01210308       4.44661194  T        0
Al       8.54847183       1.03112240       8.99936032  T        0
Si       8.48789869       8.82436558       9.16987369  T        0
Si       6.30989817       0.53470244      11.27186005  T        0
Si      16.58446316       0.59235405       8.86221104  T        0
Si      15.74609697       1.13679020       5.77985918  T        0
Si      12.64827579       9.00365777       5.83381827  T        0
Si      12.58714336       1.07594782       6.14038371  T        0
Si      11.62799914       9.34966865       8.79433785  T        0
Si      11.84325973       0.54986310       9.22246250  T        0
Si      14.25863447       8.82065857      10.35820560  T        0
Si      14.24787244       1.37146580      10.95647232  T        0
Al      11.44544944       3.37136824       4.31128625  T        0
Si      11.57576679       6.68605545       3.92151475  T        0
Si      13.85736681       2.56523539       2.17217012  T        0
Si      14.79550411       3.66662699      13.03832272  T        0
Si      14.83841642       6.83974055      12.79560470  T        0
Si       7.48196679       6.59688333       7.05660587  T        0
Si       7.44944605       3.43572022       7.13658708  T        0
Si       8.57712770       7.60578673       4.28161950  T        0
Si       8.39243807       2.38788491       4.25207545  T        0
Si       5.98402503       6.56201431       2.62902945  T        0
Si       5.86511516       3.35292938       2.70084918  T        0
Si      16.41157605       3.51192748       3.84911539  T        0
O       13.72254994       3.33199194      14.23528522  T        0
O       13.82229641       7.57639458      13.86047113  T        0
O       10.04338135      -1.22521373       3.86333941  T        0
O       12.52207212      -1.22661209       2.89027475  T        0
O       11.90013336      -2.85989963       4.93190666  T        0
O       12.02001748      -0.18764308       5.30290338  T        0
O       13.63074487      -1.24427398       0.47411783  T        0
O        5.85089709      -1.04139932      10.99150003  T        0
O       16.98084870      -0.98473409       9.14804520  T        0
O       15.18649537      -1.27194861       2.67919292  T        0
O        5.83529970      -1.06791602       6.67941713  T        0
O       14.38618327       0.26952368      12.17294270  T        0
O        7.42031489      -2.83743995       7.97337999  T        0
O        8.12934276      -1.62094017       5.66445658  T        0
O        7.50975816      -1.25920451       3.04889067  T        0
O       17.77623574      -1.62055769       3.35145388  T        0
O       11.86241073      -1.00255361       9.76894600  T        0
O       15.99798566      -2.90841077       4.67485025  T        0
Si      11.62625554      -1.37940087       4.25212659  T        0
Si      13.80360972      -0.68677872       2.01638325  T        0
Si       7.39440068      -1.41252837       7.11646424  T        0
Si       8.50895545      -0.82682195       4.29071304  T        0
Si      16.23758029      -1.47200944       3.91323316  T        0
H        7.07153747       8.87866318      10.98534327  F        0
H       18.28958667       1.43588107      10.15436837  F        0
H        7.75914502      10.43742179       7.68600442  F        0
H       11.77602644      10.74421016       4.43990149  F        0
H        6.01931354       0.95312461      13.59787507  F        0
H        4.52133035       1.34033226      10.00226603  F        0
H       16.04398914       8.93133647       8.84225548  F        0
H        5.69664664       1.68513527       1.05659762  F        0
H        5.69664665       8.18021685       1.05659762  F        0
H       15.03932990       8.88569483       5.99268334  F        0
H       14.37509523      10.52815797      11.91539967  F        0
H        8.57917776       9.96978004       4.04186183  F        0
H       11.43576677      11.60834527       9.31342917  F        0
H       13.35632228       7.06085325       2.51220488  F        0
H       14.23421140       3.11626372      -0.07819396  F        0
H        4.34567170       7.30371036       4.24836906  F        0
H        4.34567169       2.56164175       4.24836906  F        0
H        5.18772305       6.48136951       6.94399129  F        0
H        5.18772305       3.38398261       6.94399129  F        0
H       17.11292418       3.38174117      13.10695602  F        0
H       17.11292418       6.48361095      13.10695602  F        0
H       18.37141861       2.74226592       2.89672377  F        0
H       16.04230866       5.86222357       3.96597143  F        0
H       13.73584752       2.53683452      14.79637726  F        0
H       13.73584752       7.32851760      14.79637726  F        0
H       12.25872462      -3.14188650       5.79628408  F        0
H       14.08297195      -0.95342037      -0.34490676  F        0
H        6.45001594      -1.80559776      10.93294989  F        0
H       16.50115869      -1.80559776       8.94650256  F        0
H        5.06295559      -0.97995304       7.26028496  F        0
H       14.37509522      -0.66310164      11.91539968  F        0
H        8.21123678      -3.04022255       8.50458507  F        0
H        6.55301950      -1.44431996       3.13509397  F        0
H       18.17502403      -1.06794529       2.66186474  F        0
H       11.43576677      -1.74328893       9.31342918  F        0
H       15.58652088      -3.08990418       5.53385776  F        0
Fe      10.30105785       5.63826898       6.35096695  T        0
Fe      10.56898392       2.90711581       7.75335202  T        1
O       10.90317394       4.72518483       7.76399776  T        2
