141
Lattice="20.102 0.0 0.0 0.0 19.731 0.0 0.0 0.0 13.253" Properties=species:S:1:pos:R:3:move_mask:L:1:tags:I:1 i=77 E=-3472.0240129048 regions="_JSON [\"Active\"]" n_terminators=34 energy=-947.1571230199024 pbc="F F F"
O       10.17064883       8.42134096       9.34714742  T        0
O       10.11538561      10.77393859       3.75423698  T        0
O        7.94399404       8.52415432      10.74265968  T        0
O       12.55190380      11.30220617       2.87108370  T        0
O        7.99055507       7.17051785       8.41732867  T        0
O       11.65454784      12.53694341       5.05878313  T        0
O        8.20648839       9.84210270       8.39150842  T        0
O       12.27742634       9.94066116       5.11874818  T        0
O       16.79966745       9.32754378       7.04707999  T        0
O       13.84800035      11.13996034       0.54034983  T        0
O       13.84423274       9.08149651       2.11878308  T        0
O        4.92814148      11.16640876       4.18174653  T        0
O       15.21644881      11.35956755       2.80301173  T        0
O        5.83451114       7.34369248       1.53838429  T        0
O       16.38929747       7.20474206       5.36717788  T        0
O        5.84148558      10.38531814       7.60642043  T        0
O        3.90252119       8.50841703       0.08480488  T        0
O       14.33081958       8.67923636       6.22006187  T        0
O        5.36454698       9.95108260       1.78575840  T        0
O       16.18901153       9.68964148       4.55607370  T        0
O        7.65349647      12.37624049       7.99546569  T        0
O       12.12259552       7.32929170       5.55568494  T        0
O        7.99230337      10.75048588       5.90844076  T        0
O       12.11966745       9.00885323       7.60630803  T        0
O        7.31311982      11.23403581       3.11007641  T        0
O       12.59191405       8.50963256      10.22796329  T        0
O       17.82776588      11.49346034       3.37336467  T        0
O        8.54333824       8.74957930       3.74008592  T        0
O       11.43202922      10.80414636       9.42216436  T        0
O        5.24951757      12.62787666       1.96710305  T        0
O       16.12640929      12.29296364       5.17938739  T        0
O        9.86387388      12.96599885       9.46231138  T        0
O       10.11458908       6.70929074       3.92586173  T        0
O        7.46586026      13.29444637      10.54517449  T        0
O       12.60303299       6.65408277       2.99649798  T        0
O        8.20057487      14.85400401       8.44552347  T        0
O       11.82342324       4.84735166       4.91272675  T        0
O       16.12032460      13.22485263       7.74771253  T        0
O       14.00781638       7.10370735       0.40416259  T        0
O        5.21557434       6.88384001       4.16493234  T        0
O       15.51646727       6.77118753       2.85401068  T        0
O       16.06090678      14.86988676       5.64695236  T        0
O        5.96487877       5.91534172       7.09226519  T        0
O       13.93022394      13.33856642       6.22332224  T        0
O        8.32975005       4.81673281       7.23009923  T        0
O       11.74691425      14.92399767       6.03829141  T        0
O        8.12532039       7.07982951       5.79903720  T        0
O       11.83459329      12.75025527       7.68362202  T        0
O        7.58749934       6.29203746       3.29905363  T        0
O       12.34444601      13.20602872      10.29678741  T        0
O       18.08905685       6.35487721       3.42059523  T        0
O        5.56986152       4.83081491       2.35538322  T        0
O       16.27621942       4.74888467       4.54297159  T        0
Si       8.54653126       8.48924511       9.21199501  T        0
Si      11.64055456      11.14790828       4.22844113  T        0
Si      13.88303810      10.70343563       2.14753956  T        0
Si       5.40664734       8.70919649       0.73512087  T        0
Si      15.90968975       8.69089795       5.81564187  T        0
Si       7.41682760      10.86475112       7.40625197  T        0
Si      12.70469652       8.73093959       6.12726158  T        0
Al       8.38275815      10.49130775       4.26128134  T        0
Si      11.58055178       9.20374283       9.13589289  T        0
Si       5.74231326      11.24383655       2.73434336  T        0
Si      16.33506779      11.20918027       3.99463341  T        0
Si       8.30617608      13.35876639       9.12342928  T        0
Si      11.69611645       6.36712070       4.30114072  T        0
Al      14.01899326       7.30811183       2.22215392  T        0
Si      15.55426971      13.41208360       6.21163162  T        0
Si       7.57024360       6.27383811       7.12730842  T        0
Si      12.30748552      13.40003090       6.27903718  T        0
Si       8.57886182       7.18152798       4.24806740  T        0
Si      11.37690727      12.42155352       9.21415947  T        0
Si       6.02052059       6.34740858       2.81985305  T        0
Si      16.53902888       6.28078128       4.00525711  T        0
O       10.12045507       8.43467557      -3.96531486  T        0
O        7.79437795       8.93141877      -2.90448148  T        0
O        7.88830661       7.13509540      -4.90393367  T        0
O        8.44307990       9.75996594      -5.45874533  T        0
O        6.45845961       8.98949620      -0.50749865  T        0
O        5.93774883      10.84889751      -2.44844400  T        0
O        5.28273416       8.24260070      -2.73903019  T        0
O       15.39126256       9.27882628      -3.76422022  T        0
O       14.48873353      12.27976562      -1.78034956  T        0
O       16.15026447      10.34909467      -0.71748562  T        0
O       13.85964492       9.62833579      -1.57292703  T        0
O       11.55411509       8.65618869      -6.06645777  T        0
O       12.79513547       8.45894308      -3.68160819  T        0
O       11.56889147      10.72518544      -4.25461208  T        0
O       14.61003975       7.17352234      -2.17587741  T        0
O        9.82707338      12.68898980      -3.62724847  T        0
O       14.98172993      13.01681082      -4.30149673  T        0
O       14.10944537       4.82297128      -1.08172899  T        0
O       16.38145803       5.94609653      -0.49121899  T        0
O       11.28658141      12.90661755      -5.85403983  T        0
O       12.46963803      13.05860900      -3.41322436  T        0
O       14.25193053      14.81155765      -2.34432236  T        0
Si       8.51734207       8.55031073      -4.33137844  T        0
Si       6.39099594       9.27967726      -2.13273390  T        0
Si      14.63111035      10.94668510      -0.88401242  T        0
Si      11.50697305       9.10683268      -4.48941674  T        0
Si      14.19159685       8.58859277      -2.86489010  T        0
Si      14.80265532       6.28518657      -0.79145911  T        0
Si      11.28538669      12.33780232      -4.30631076  T        0
Si      14.02651020      13.31406253      -2.98295576  T        0
H        7.07153747       8.87866318      10.98534327  F        0
H       16.63692148       9.14969546       7.98396390  F        0
H        4.05829635      10.79936776       4.41071281  F        0
H        5.06295559      10.84500939       7.26028495  F        0
H        3.12887899       8.92429365       0.49683426  F        0
H       13.54926599       8.42132791      10.11787432  F        0
H       18.17502404      10.93300163       2.66186473  F        0
H        5.53537813      12.95496052       1.09262639  F        0
H        6.74596321      12.66985099      10.74076342  F        0
H        8.48702655      15.71151028       8.80063176  F        0
H       11.61525895       4.01919395       4.45233654  F        0
H       16.41758072      12.40218664       8.16986141  F        0
H        4.34567170       7.30371036       4.24836906  F        0
H       15.72702255      15.71242072       5.99260349  F        0
H        5.18772305       6.48136951       6.94399129  F        0
H        7.92514400       4.01763560       6.85279547  F        0
H       12.17714149      15.71306863       6.40017283  F        0
H       13.32025657      13.20375310      10.31771692  F        0
H       18.37141860       7.12308619       2.89672377  F        0
H        5.99116592       4.00312854       2.66051272  F        0
H       16.04230867       4.00312851       3.96597142  F        0
H        7.84356088       6.72376138      -5.79631577  F        0
H        7.75914502      10.43742179      -5.56699558  F        0
H        6.45001595      11.67065412      -2.32005011  F        0
H        4.52133035       8.52501985      -3.25073397  F        0
H       16.04398914       8.93133647      -4.41074452  F        0
H       16.97340651      10.80641058      -0.49686596  F        0
H       12.20788617       8.97653229      -6.69697499  F        0
H        9.00479756      13.03623234      -4.02623335  F        0
H       15.75661379      12.42699387      -4.24840076  F        0
H       14.42640568       4.01828351      -0.63391236  F        0
H       17.11292418       6.48361095      -0.14604398  F        0
H       12.09335996      12.92196996      -6.39742946  F        0
H       14.11111957      15.72757569      -2.66054442  F        0
Fe      10.07317650       9.10981287       2.37930238  T        0
Fe      12.67576580       8.77829869       0.19198991  T        1
O       10.95487612       8.91405457       0.80598863  T        2
