142
Lattice="19.123 0.0 0.0 0.0 14.277 0.0 0.0 0.0 7.5465" Properties=species:S:1:pos:R:3:move_mask:L:1:tags:I:1 i=128 E=-2603.9155142701 regions="_JSON [\"Active\"]" n_terminators=32 energy=-959.1140947163514 pbc="F F F"
O        6.19792213       1.10140478       1.56275860  T        0
O       15.62313955       8.40996414       5.80326720  T        0
O       12.96370456       1.11104977       1.52354422  T        0
O        3.40220615       8.48012856       5.79623013  T        0
O        6.07883250      13.14771222       1.47835247  T        0
O       15.64920736       5.73818240       5.82426459  T        0
O       13.24469057      13.18018012       1.33830432  T        0
O        3.34359141       5.78401888       5.73161984  T        0
O       13.25825265      13.17022778       6.18595261  T        0
O        3.46500250       5.74177374       1.66600540  T        0
O        6.27383794      13.03716856       5.40272591  T        0
O       15.61988250       5.76472365       1.76279766  T        0
O       13.00224380       1.08903398       6.05548150  T        0
O        3.49982228       8.43543760       1.71621544  T        0
O        5.96217332       1.09662815       6.15881565  T        0
O       15.56628083       8.45064254       1.79077048  T        0
O        7.35445735       3.39258844       2.40910429  T        0
O       17.25606232      10.49782650       6.26745831  T        0
O       11.84760688       3.42258041       2.41878079  T        0
O        2.10685833      10.80840968       6.18230584  T        0
O        7.19944383      10.86051292       2.50184012  T        0
O       17.17164304       3.51325314       6.12326658  T        0
O       11.96736970      10.88744416       2.10674434  T        0
O        2.03115870       3.41645948       6.06803248  T        0
O       12.11018975      10.98346709       4.99687774  T        0
O        2.04618770       3.42341534       1.44924037  T        0
O        7.33057459      10.72547611       5.19536413  T        0
O       17.12927715       3.52851135       1.42815361  T        0
O       11.94410592       3.39077363       5.07905088  T        0
O        1.96815954      10.64823038       1.38235329  T        0
O        7.28289121       3.19872751       5.06235884  T        0
O       17.21461537      10.54073781       1.32635839  T        0
O        6.76268725       3.15294516      -0.06715769  T        0
O       16.31294654      10.02478091       3.81481033  T        0
O       12.43725261       3.22341682      -0.05180385  T        0
O        3.03391078      10.14353851       3.73939268  T        0
O        6.69321780      11.05983687      -0.04546946  T        0
O       16.07715207       4.07023308       3.78083373  T        0
O       13.37247477      11.04360000      -0.22734000  T        0
O        3.09984840       4.04406418       3.73967660  T        0
O        4.73523870       3.37297724       1.75868609  T        0
O       14.65187070      10.91379532       5.76753060  T        0
O       14.45693220       3.34300367       1.79527691  T        0
O        4.70199780      10.83844675       5.70247933  T        0
O        4.63769225      10.87542350       1.73695744  T        0
O       14.51163409       3.30726687       5.80419927  T        0
O       14.63051379      10.97054676       2.03634204  T        0
O        4.71668080       3.47904539       5.77424468  T        0
O       11.51320274       8.42215758       3.81237915  T        0
O        7.75770905       8.49563220       3.84938229  T        0
O       11.46276471       5.73216116       3.83756175  T        0
O        7.72507669       5.62520146       3.97313216  T        0
O        9.56748653      10.25328916       3.83688552  T        0
O        9.60912748       3.95082905       3.93273985  T        0
O       13.42421747       7.02077450       5.11645544  T        0
O        5.64811395       7.10652150       5.29480161  T        0
O        5.69477502       7.02993262       2.41332653  T        0
O       13.36752500       7.02717062       2.42821348  T        0
O       14.13193490       7.06280228      -0.07853522  T        0
O        5.01501343       7.09529694      -0.10036837  T        0
Si       6.19639315       2.74737983       1.41584988  T        0
Si      15.93922760       9.98147635       5.41571285  T        0
Si      12.98424160       2.75790660       1.41917701  T        0
Si       3.30488960      10.04837492       5.35239774  T        0
Si       6.11443729      11.49715045       1.43159027  T        0
Si      15.84764333       4.17050678       5.39879276  T        0
Si      13.25175873      11.52131504       1.34628780  T        0
Si       3.29630629       4.19780016       5.35434786  T        0
Si      13.15381203      11.51339213       6.10615762  T        0
Si       3.34317163       4.17688101       2.12889520  T        0
Si       6.15135967      11.50787485       6.01627894  T        0
Si      15.81668483       4.18906129       2.16859197  T        0
Si      13.02442340       2.73664114       6.13586136  T        0
Si       3.29718007      10.00988198       2.12407220  T        0
Si       6.11791443       2.73894598       6.13930452  T        0
Si      15.92947531      10.00659623       2.21618842  T        0
Al      11.37740910      10.27100857       3.60451791  T        0
Si       7.90830093      10.14892050       3.77612708  T        0
Si      11.27571573       4.06741167       3.77476948  T        0
Si       7.91137264       3.99248349       3.79389915  T        0
Si      14.73884646       7.07556540       6.10679351  T        0
Si       4.25895486       7.10574104       6.10420791  T        0
Si       4.41614454       7.08371413       1.44056891  T        0
Si      14.70758261       7.10038852       1.46241228  T        0
Si      12.48637870       7.09139968       3.79290442  T        0
Al       6.61647882       7.09700606       3.86459546  T        0
O        6.28891185      13.07226997       9.77837463  T        0
O        3.37343295       5.84266121       9.87893892  T        0
O        3.58087467       8.45595388       9.76000356  T        0
O        7.58628320      10.75046117       9.91891448  T        0
O        2.36735101      10.72680227       8.82977495  T        0
O        6.71101003       3.19412152       7.59828763  T        0
O       12.43889916       3.20513474       7.59197144  T        0
O        2.84413653      10.45298247      11.40668234  T        0
O        6.44852980      11.45191070       7.62154934  T        0
O       12.62302668      10.97543696       7.57268087  T        0
O        4.88754577      10.76035202       9.67716401  T        0
O        1.81405879      13.12498182       7.61191514  T        0
O       -0.03375991      11.18967663       7.84028246  T        0
O        5.88686280       6.97458698       9.88067536  T        0
O       14.13085958       7.04857131       7.63433015  T        0
O        4.53173386       7.02201353       7.71023662  T        0
Si       6.27535720      11.49965456       9.25744556  T        0
Si       3.41722146      10.08100900       9.90481985  T        0
Si       1.56958628      11.47735090       7.59650136  T        0
Si       4.33875396       7.06863048       9.31517516  T        0
H        5.61083456       0.52083913       2.07985367  F        0
H       13.50938118       0.51971906       2.07492992  F        0
H        5.61112307      13.75835362       2.07975607  F        0
H       13.50958039      13.75682243       2.07498241  F        0
H       13.51084140      13.75504172       5.44776650  F        0
H        5.62495998      13.75277707       5.44935724  F        0
H       13.50975252       0.52161770       5.44778410  F        0
H        5.62509051       0.52255101       5.44942550  F        0
H       17.28974254      11.12548174       7.01862795  F        0
H       17.28979000       3.14560285       7.02339196  F        0
H        1.81954193       3.15353441       6.98813474  F        0
H        1.83183800       3.14857954       0.53722786  F        0
H       17.29134854       3.14797220       0.53999843  F        0
H        1.83154049      11.12909684       0.54034962  F        0
H       17.29120144      11.12876736       0.54010345  F        0
H        6.35952436       2.97904956      -0.93427223  F        0
H       12.76076393       2.97683097      -0.93375646  F        0
H        6.36236324      11.29726414      -0.93275871  F        0
H       12.76174962      11.29928001      -0.93393629  F        0
H       14.60982961       7.13673871      -0.92783774  F        0
H        4.51175007       7.13509558      -0.92932085  F        0
H        5.61112307      13.75835362       9.62625607  F        0
H        3.36661743       4.89904760       9.62155888  F        0
H        7.72879001      10.28772525      10.77169866  F        0
H        6.35949513       2.97597070       8.47938261  F        0
H       12.76321398       2.97604733       8.47995589  F        0
H        3.19647477      10.11404518      12.25127207  F        0
H       12.76333233      11.30075111       8.47967776  F        0
H        2.56257806      13.76129914       7.54737584  F        0
H       -0.96427299      11.34215683       7.54753770  F        0
H        6.24001829       7.13882896      10.76907540  F        0
H       14.61405599       7.13800201       8.47661577  F        0
Fe       9.47341838       5.88627542       5.04779493  T        0
Fe       9.68800067       8.44742976       4.91236901  T        1
O       10.42090045       7.07240145       6.32064342  T        2
O        8.94682728       7.30924156       6.40276301  T        3
