130
Lattice="24.397 0.0 0.0 0.0 24.397 0.0 0.0 0.0 24.397" Properties=species:S:1:pos:R:3:move_mask:L:1:tags:I:1 i=41 E=-6943.8331748197 regions="_JSON [\"Active\"]" n_terminators=24 energy=-905.6739423131522 pbc="F F F"
O        9.58083260      14.68418120      -0.03563497  T        0
O       12.27575572       9.56042108       2.52189397  T        0
O       14.84560508      21.08406527       6.12517899  T        0
O       12.21228074      15.67921060       8.87885887  T        0
O        9.91899969      18.80537620       3.51008512  T        0
O       15.60469290       9.47307748       6.23531798  T        0
O       18.32918455      14.84613007       8.86972812  T        0
O       21.09881545      12.27169408       3.51745953  T        0
O       21.02820629      15.65504197      -0.03075919  T        0
O       18.25631663      21.09695678       2.60201246  T        0
O       14.57838478       9.67482490      -0.05167864  T        0
O        9.52245551      12.34276998       2.50215897  T        0
O       21.05650890      14.86261383       6.15976273  T        0
O       15.68308814      12.21979518       8.87546799  T        0
O       18.35057351       9.42808248       3.45111665  T        0
O        9.43425210      15.68280277       6.08334132  T        0
O       14.84855023      18.33463215       8.87171621  T        0
O       12.14613183      21.00224672       3.44896754  T        0
O       15.61996611      20.93437344      -0.13970786  T        0
O       21.07563993      18.33293110       2.64961954  T        0
O       11.63765686      13.87429073       1.81501495  T        0
O       13.88387411      11.64080711       1.98493874  T        0
O       19.24524148      16.52953132       1.81210360  T        0
O       16.51007210      19.22294065       1.80315372  T        0
O       10.25836499      10.30256561       0.93048995  T        0
O       11.32297786      16.72097738       4.51143852  T        0
O       14.03622325      19.25641972       4.33756128  T        0
O       14.00097900      16.53756547       7.03740515  T        0
O       19.24670279      14.06133350       4.31730393  T        0
O       16.59769819      11.23326818       4.45214791  T        0
O       16.52578961      14.01381469       7.03899110  T        0
O       11.90266779      11.96545178       3.67877076  T        0
O       18.48613641      18.49446107       3.39246663  T        0
O       12.09474935       8.69181669      -0.03287860  T        0
O        8.66080974      12.16138411      -0.03356830  T        0
O       12.04783311      14.91800915       6.28820483  T        0
O       12.31952829      18.34537255       2.59875593  T        0
O       15.62961178      18.48122984       6.29114401  T        0
O       18.46973304      15.64313509       6.28335912  T        0
O       18.49293272      12.05133057       2.81101920  T        0
O       14.89322104      12.07982459       6.27771479  T        0
O       10.49718884      16.58555103       1.97733674  T        0
O       13.99385410      10.44989258       4.38464188  T        0
O       20.02356794      13.96055173       1.75058530  T        0
O       16.56810034      20.08026714       4.35949704  T        0
O       16.56077023      10.47759157       1.87740549  T        0
O       10.50073542      14.14425628       4.24207464  T        0
O       13.99468866      20.15620331       1.78273208  T        0
O       20.07832116      16.59779738       4.38538761  T        0
O        7.72521803      10.48153814       1.86774114  T        0
O       16.55679346      16.56004742       7.88873755  T        0
O       13.97601272      13.98435028       7.88402354  T        0
O       10.43470120       7.77660849       1.90238639  T        0
Al      10.87249876      15.25213486       0.92500189  T        0
Si      13.00649443      10.87603292       3.16144887  T        0
Si      19.68252248      15.27945354       0.84871990  T        0
Si      17.47875562      19.71544916       3.05109344  T        0
Al      15.20601194      10.92569704       0.93709189  T        0
Si      10.87908092      13.07673311       3.05826911  T        0
Si      15.27138871      19.70351138       0.87096858  T        0
Si      19.72509941      17.47927090       3.05765163  T        0
Si       9.03197721      11.31211668       1.30878105  T        0
Si      10.84221519      15.34812161       5.28712050  T        0
Si      13.11540567      19.74105565       3.09655665  T        0
Si      15.25382752      17.47350497       7.52573422  T        0
Si      19.71459577      15.28029009       5.29471756  T        0
Si      17.49054481      10.80019746       3.13239655  T        0
Si      15.28033194      13.06405748       7.51637002  T        0
Si      11.26269434       9.07216241       1.31651954  T        0
Si      15.28690546      10.81312663       5.32699555  T        0
Si      19.71383537      13.07225339       3.10106511  T        0
Si      17.47796976      15.25606973       7.51709302  T        0
Si      15.28297886      19.72166948       5.30704265  T        0
Si      10.93009776      17.55550082       3.16718075  T        0
Si      13.06017347      15.28463934       7.52047326  T        0
O       14.75886896      12.13453396      -2.53799382  T        0
O       15.61136496      18.71195882      -2.44926334  T        0
O       12.00853999      14.92149282      -2.59011921  T        0
O       18.24656106      15.70731332      -2.78648627  T        0
O       13.89219299      14.12117981      -0.93476471  T        0
O       16.52785580      16.63933677      -0.95767640  T        0
O       12.91037766      10.18542755      -2.07897375  T        0
O       10.15180578      13.01680480      -2.05264627  T        0
O       12.23370146      15.93130578      -0.05456406  T        0
O       15.45266793      12.45982747       0.08899052  T        0
O       18.42091668      14.97394330      -0.15830161  T        0
O       14.72880409      18.33545221       0.04445506  T        0
O       12.29991292      12.38400053      -3.45426832  T        0
O       16.45477472      14.09187332      -1.79045794  T        0
O       13.95845425      10.54930025      -4.53567659  T        0
O        7.66541687      14.03736143      -1.69159528  T        0
O       13.99091502      16.64740172      -1.87192282  T        0
O       10.49562802      14.07051939      -4.52956910  T        0
O       13.98322799       7.71697869      -1.69082791  T        0
Si      15.19256201      13.15540651      -1.34223453  T        0
Si      15.25005612      17.55293714      -1.35133406  T        0
Si      13.00236218      15.41977102      -1.41304670  T        0
Si      17.43886572      15.33698835      -1.39754509  T        0
Si      13.40404334       9.07175030      -0.95694241  T        0
Si      11.22438327      13.56956887      -3.14772175  T        0
Si       9.01925355      13.48241337      -0.94129758  T        0
Si      13.47057922      11.28441325      -3.14556151  T        0
H       14.01033133      21.15748981       6.62630180  F        0
H       11.67124922      16.48560174       8.95913012  F        0
H        9.33839640      18.82463975       4.28720704  F        0
H       16.48559112       9.33840607       6.62628668  F        0
H       18.82464116      14.01032609       8.95915608  F        0
H       21.15750258      11.67126816       4.28721909  F        0
H       21.15749781      16.48550533      -0.52720743  F        0
H       18.82463422      21.15752504       1.81198193  F        0
H       21.15748967      14.01033142       6.62630180  F        0
H       16.48560162      11.67124930       8.95913012  F        0
H       18.82463962       9.33839646       4.28720704  F        0
H        9.33840600      16.48559124       6.62628668  F        0
H       14.01032599      18.82464129       8.95915608  F        0
H       11.67126808      21.15750273       4.28721909  F        0
H       16.48550522      21.15749796      -0.52720744  F        0
H       21.15752488      18.82463433       1.81198193  F        0
H        7.34352333       9.66479174       1.48837704  F        0
H        9.66479163       7.34352337       1.48837704  F        0
H       16.48557283      18.82464187      -2.86023677  F        0
H       18.82464171      16.48557294      -2.86023676  F        0
H       13.68673308       9.66480596      -4.85513656  F        0
H        7.34352146      13.68671965      -2.53387758  F        0
H        9.66480591      13.68673318      -4.85513656  F        0
H       13.68671953       7.34352150      -2.53387758  F        0
Fe      13.86191284      13.64007210       1.42827101  T        0
Fe      13.49834637      16.91663224       1.40141418  T        1
O       13.98959309      15.37086398       2.63695355  T        2
O       14.92075264      15.45474379       1.47812933  T        3
