148
Lattice="24.397 0.0 0.0 0.0 24.397 0.0 0.0 0.0 24.397" Properties=species:S:1:pos:R:3:move_mask:L:1:tags:I:1 i=41 E=-6943.8331748197 regions="_JSON [\"Active\"]" n_terminators=24 energy=-1049.603262559985 pbc="F F F"
O        9.56728982      14.68076803      -0.03113230  T        0
O       12.26049401       9.55024728       2.54510854  T        0
O       14.85435449      21.08276827       6.14641041  T        0
O       12.18998209      15.66483907       8.88518797  T        0
O        9.92820568      18.80527910       3.51698067  T        0
O       15.59638077       9.47219119       6.25474696  T        0
O       18.31240507      14.83606022       8.87742623  T        0
O       21.10464912      12.24165685       3.50004447  T        0
O       20.87762632      15.73748840      -0.02128496  T        0
O       18.31461622      20.92103137       2.57653814  T        0
O       14.55716935       9.66236672      -0.04840628  T        0
O        9.50607921      12.33775618       2.52403614  T        0
O       21.05292081      14.87210985       6.18691122  T        0
O       15.67615753      12.21001777       8.88553459  T        0
O       18.29563893       9.39467279       3.48213231  T        0
O        9.43204132      15.68060764       6.08746672  T        0
O       14.83756676      18.31377934       8.88957148  T        0
O       12.13886879      21.00117263       3.44383619  T        0
O       15.79623591      20.79205457      -0.11929221  T        0
O       20.92435333      18.30379258       2.55379824  T        0
O       11.61999650      13.85578748       1.81934610  T        0
O       13.86864667      11.62345019       2.00524382  T        0
O       19.13917154      16.43483455       1.88241842  T        0
O       16.44998973      19.13636411       1.90187625  T        0
O       10.25694430      10.30895794       0.94423584  T        0
O       11.32735852      16.71735704       4.52075670  T        0
O       14.03201645      19.27285119       4.34093754  T        0
O       13.99086528      16.51786627       7.05312353  T        0
O       19.25474685      14.00731403       4.35752150  T        0
O       16.56808538      11.23571246       4.45955054  T        0
O       16.50278858      14.00853988       7.04736855  T        0
O       20.28383877      20.28286448       0.84494146  T        0
O       11.88778356      11.95902191       3.69732188  T        0
O       18.42640485      18.40340964       3.49788490  T        0
O       12.07839838       8.67873100      -0.01146559  T        0
O        8.64640345      12.15905241      -0.01232813  T        0
O       12.04231711      14.90424105       6.29427742  T        0
O       12.32393402      18.33971281       2.60298512  T        0
O       15.59809553      18.46687681       6.30336626  T        0
O       18.45350853      15.62026349       6.28583887  T        0
O       18.48712838      12.01674477       2.83448802  T        0
O       14.86928029      12.07363989       6.29259601  T        0
O       18.27067565      21.81638643       0.06770938  T        0
O       21.77932927      18.26560352       0.01439083  T        0
O       10.49550146      16.57834226       1.98872354  T        0
O       13.97122619      10.43501981       4.40901539  T        0
O       20.03281217      13.92234166       1.77926682  T        0
O       16.57161316      20.07906594       4.40815717  T        0
O       16.54040566      10.45805432       1.89037961  T        0
O       10.49229934      14.14416634       4.24816539  T        0
O       13.99152913      20.15277979       1.76977611  T        0
O       20.09054184      16.55085216       4.39658541  T        0
O       20.02045812      22.78176953       1.87740346  T        0
O        7.72421592      10.47106797       1.88780380  T        0
O       16.55003734      16.55276598       7.89709914  T        0
O       13.95834479      13.96895314       7.90769450  T        0
O       22.79570557      19.99211377       1.82856940  T        0
O       10.41557676       7.78291241       1.92723152  T        0
Al      10.85927192      15.23981224       0.93690774  T        0
Si      12.98926421      10.86571599       3.18415061  T        0
Si      19.61520765      15.22441096       0.89054385  T        0
Si      17.45772258      19.63956365       3.10930758  T        0
Al      15.18362187      10.90477190       0.95275928  T        0
Si      10.86634955      13.06912951       3.07156556  T        0
Si      15.28102847      19.64518564       0.89932465  T        0
Si      19.65804748      17.41508702       3.08444915  T        0
Si       9.02370235      11.30953208       1.32699176  T        0
Si      10.84020315      15.34425818       5.29394767  T        0
Si      13.11467050      19.74339476       3.09189803  T        0
Si      15.24031006      17.45765089       7.53952313  T        0
Si      19.70831194      15.25062499       5.31307476  T        0
Si      17.46407180      10.78079161       3.14957833  T        0
Si      15.26320706      13.05467059       7.53089263  T        0
Si      21.44845133      19.21802225       1.30082483  T        0
Si      11.25006189       9.07056968       1.33597666  T        0
Si      15.26647668      10.80704649       5.34420416  T        0
Si      19.70972465      13.03662500       3.12064850  T        0
Si      17.46317123      15.24428833       7.52376001  T        0
Si      15.27321577      19.71768492       5.32741884  T        0
Si      10.93440757      17.55067593       3.17521375  T        0
Si      13.04632664      15.26784124       7.53390223  T        0
Si      19.24294189      21.44587906       1.33213648  T        0
O       14.72321555      12.09555571      -2.51253614  T        0
O       15.74530009      18.51155190      -2.45996289  T        0
O       11.98505632      14.89455986      -2.56563665  T        0
O       18.31298135      15.72999835      -2.62130968  T        0
O       13.88395118      14.10112420      -0.92084868  T        0
O       16.46236248      16.50276804      -0.85795119  T        0
O       12.88737632      10.13540043      -2.08818867  T        0
O       10.10874377      13.00791075      -2.05412335  T        0
O       17.61835678      20.36831241      -2.04438927  T        0
O       20.27182939      17.46833391      -1.99807429  T        0
O       12.22829847      15.91104417      -0.03662072  T        0
O       15.43004437      12.44150030       0.11020250  T        0
O       18.36703096      14.83262344      -0.09388147  T        0
O       14.73009854      18.29803106       0.05018889  T        0
O       12.26557245      12.35487126      -3.42829736  T        0
O       18.22417844      18.24161759      -3.49145976  T        0
O       16.44930593      14.01945971      -1.80671792  T        0
O       13.93401401      10.55543296      -4.53813078  T        0
O       22.75877926      16.43486289      -1.72428890  T        0
O       16.44068481      20.02102559      -4.46481619  T        0
O        7.62806198      14.01579935      -1.66921930  T        0
O       13.96798223      16.61958828      -1.86964471  T        0
O       10.49589148      14.06336427      -4.52423348  T        0
O       16.46933938      22.79081280      -1.69492214  T        0
O       19.98349483      16.47508481      -4.51153504  T        0
O       13.94687242       7.67328446      -1.66106519  T        0
Si      15.17336629      13.12023612      -1.33046338  T        0
Si      15.25222605      17.47079241      -1.32458190  T        0
Si      12.98686434      15.39463765      -1.39898798  T        0
Si      17.41848249      15.25364998      -1.34090952  T        0
Si      13.38336237       9.04441022      -0.94529051  T        0
Si      11.19971457      13.55107579      -3.13417629  T        0
Si      17.06006197      21.45298627      -0.95380344  T        0
Si      19.22095385      16.98710981      -3.15361498  T        0
Si       8.99337754      13.47674635      -0.92761392  T        0
Si      13.43990770      11.25698922      -3.13436439  T        0
Si      21.42649147      16.98320647      -0.93526863  T        0
Si      17.03505436      19.28752344      -3.12637597  T        0
H       14.01033133      21.15748981       6.62630180  F        0
H       11.67124922      16.48560174       8.95913012  F        0
H        9.33839640      18.82463975       4.28720704  F        0
H       16.48559112       9.33840607       6.62628668  F        0
H       18.82464116      14.01032609       8.95915608  F        0
H       21.15750258      11.67126816       4.28721909  F        0
H       21.15748967      14.01033142       6.62630180  F        0
H       16.48560162      11.67124930       8.95913012  F        0
H       18.82463962       9.33839646       4.28720704  F        0
H        9.33840600      16.48559124       6.62628668  F        0
H       14.01032599      18.82464129       8.95915608  F        0
H       11.67126808      21.15750273       4.28721909  F        0
H       20.83112530      23.15241223       1.48839475  F        0
H        7.34352333       9.66479174       1.48837704  F        0
H       23.15241204      20.83112542       1.48839475  F        0
H        9.66479163       7.34352337       1.48837704  F        0
H       13.68673308       9.66480596      -4.85513656  F        0
H       23.15240156      16.80916493      -2.53384338  F        0
H       16.80913871      20.83112323      -4.85512183  F        0
H        7.34352146      13.68671965      -2.53387758  F        0
H        9.66480591      13.68673318      -4.85513656  F        0
H       16.80916481      23.15240172      -2.53384338  F        0
H       20.83112308      16.80913882      -4.85512183  F        0
H       13.68671953       7.34352150      -2.53387758  F        0
Fe      13.49529434      16.89583109       1.41301192  T        0
Fe      13.84749374      13.61909754       1.43655604  T        1
O       14.90549774      15.42769616       1.52244802  T        2
O       13.94528558      15.35065833       2.65759738  T        3
