141
Lattice="20.102 0.0 0.0 0.0 19.731 0.0 0.0 0.0 13.253" Properties=species:S:1:pos:R:3:move_mask:L:1:tags:I:1 i=77 E=-3472.0240129048 regions="_JSON [\"Active\"]" n_terminators=36 energy=-936.6097335861106 pbc="F F F"
O       10.06061698       8.55641559       9.26919136  T        0
O        7.74091855       8.67248852      10.42150292  T        0
O        8.03529069       7.12364179       8.21139361  T        0
O       12.60438594      17.67321384       4.94790698  T        0
O       11.88602079      12.79461449       4.52114866  T        0
O        8.03546957       9.81364004       8.01702236  T        0
O        3.42229475      10.39379808       6.21595444  T        0
O        6.20627622       8.73083310      12.92932696  T        0
O        6.50230075      10.79469006      11.13858324  T        0
O        4.76239928       8.29399791      10.51788771  T        0
O       15.15142265       8.57422967       9.01914116  T        0
O        3.90370914      12.47051223       7.91603258  T        0
O       13.99645072      17.16878943      12.07252993  T        0
O       14.62824868      12.31298956      11.72280790  T        0
O        5.95683275      11.04547979       6.86506380  T        0
O       16.19832335      10.25887086      12.57148425  T        0
O        4.23283676       9.99133635       8.64213062  T        0
O       14.05397834       9.74822400      11.24311746  T        0
O        7.92055961      12.48361348       7.90979384  T        0
O        7.84372717      17.19334669       7.72264001  T        0
O        8.40117269      11.18755453       5.68188482  T        0
O       11.62666580       8.50984692       7.17506515  T        0
O        2.20556912       8.53705460       9.69470410  T        0
O       12.66290266       8.21927003       9.67142040  T        0
O       11.69456736      10.61689953       8.87457945  T        0
O       11.97269215      18.99092659       9.37291395  T        0
O        3.99461397       7.41276635       8.08796815  T        0
O       14.60793709       7.07138434      11.22060253  T        0
O       10.01912034      17.07602782       9.40942172  T        0
O       10.03537140      12.86364399       9.45916799  T        0
O        7.67798597      17.05294916      10.48447239  T        0
O        7.55909654      13.08414724      10.51603775  T        0
O        8.43875103      14.95661869       8.87713258  T        0
O        3.61036782       6.49645784       5.57983506  T        0
O        6.01181233      12.85810972      12.73575416  T        0
O        4.86925462      12.80080618      10.37284399  T        0
O       14.92792378      12.92828681       9.06024369  T        0
O       15.41741646      17.14662097       9.91455301  T        0
O        4.07760253       4.85421677       7.64839460  T        0
O        6.04225219       6.41124177       6.63071072  T        0
O       14.27558696      13.24621995       5.57846620  T        0
O       14.19590860      16.69324857       6.85492283  T        0
O        8.28385741       4.90199285       6.61705315  T        0
O       12.32358211      15.11227462       5.66594608  T        0
O        8.33217558       7.47000430       5.67466068  T        0
O       12.11273699      12.98060426       7.22400958  T        0
O       11.67214334      17.10089289       7.39176439  T        0
O        2.27126168      13.33599651       9.99164150  T        0
O       12.53642097      12.92426747      10.18503749  T        0
O       12.67239282      16.55252505       9.79033594  T        0
O        4.10700301      14.88384728       8.80683211  T        0
O       14.31848817      14.82498188      10.85634754  T        0
Si       8.46610019       8.52091417       8.93125865  T        0
Al       6.13422262       9.02241096      11.23037334  T        0
Si       4.40206892      10.99812290       7.38680412  T        0
Si      14.65946389      10.78251272      12.33438270  T        0
Si       7.57874309      11.09368136       7.10188217  T        0
Si      11.55620862       9.01449860       8.74749838  T        0
Si       3.79687104       8.53176138       9.24980570  T        0
Si      14.15581633       8.39107823      10.33097450  T        0
Si       8.48251360      16.58036668       9.11737096  T        0
Si       8.48280350      13.35496010       9.17302688  T        0
Si       6.21416569      12.40491452      11.18765097  T        0
Si       4.44517731       6.31217762       6.98660096  T        0
Si       7.66332725       6.42865449       6.76517110  T        0
Si      12.65035098      13.50561899       5.79941701  T        0
Si      12.67758858      16.61284207       6.20305040  T        0
Al      11.61137108      12.33349271       8.70562608  T        0
Si      11.56105093      17.44541804       8.98860158  T        0
Si       3.76916518      13.35174458       9.29092014  T        0
Si      14.13111710      13.25732019      10.47631428  T        0
Si      14.09930422      16.44049968      10.59841013  T        0
O       10.20383343      10.99885747      17.31960633  T        0
O       12.54845221      10.94449786      16.13906446  T        0
O       12.15097931      12.74954237      18.10904854  T        0
O       12.43001617      10.25645118      18.77717775  T        0
O       13.69601576      10.70723445      13.66724562  T        0
O       14.21341186       8.85154179      15.62309267  T        0
O        5.00523326      11.03276804      17.59300158  T        0
O       15.20199940      11.30125351      15.62410298  T        0
O        5.53765904       7.35405794      15.05891155  T        0
O        3.85217133       9.33736825      14.24471866  T        0
O        6.09195251       9.91557771      15.33222459  T        0
O        8.68915625      10.83215131      19.40133240  T        0
O        7.52199733      11.35613250      16.99235197  T        0
O        8.49884991       8.93699166      17.46530868  T        0
O        5.66613510      12.52208488      15.38402930  T        0
O       10.27281941       7.02816775      16.87715647  T        0
O        5.15815781       6.77806095      17.62705711  T        0
O        5.93298410      14.94338046      14.42464032  T        0
O        3.67695884      13.69201800      13.92196999  T        0
O        8.81239153       6.78845826      19.10079382  T        0
O        7.62139413       6.56714506      16.67004072  T        0
O        5.70037866       4.89707569      15.67682544  T        0
Si      11.80568457      11.22242312      17.58910627  T        0
Si      13.84981658      10.43236049      15.28354454  T        0
Si       5.42935055       8.81203922      14.33699670  T        0
Si       8.70438635      10.53124202      17.78117071  T        0
Si       6.03279166      11.21231449      16.30678594  T        0
Si       5.30166751      13.45836571      14.09424812  T        0
Si       8.78876497       7.33219740      17.53998554  T        0
Si       6.03521691       6.39152743      16.26929658  T        0
H       11.77741499      17.76721957       4.45015374  F        0
H       11.77741500      11.82883679       4.45015372  F        0
H        3.46536401      10.58100877       5.26900439  F        0
H       16.04398914       8.93133647       8.84225548  F        0
H       14.40563884      18.04556895      12.19637069  F        0
H       16.97340651      10.80641058      12.75613404  F        0
H        7.69777211      18.11826613       7.44841170  F        0
H        8.50665683      10.58475679       4.91774357  F        0
H       12.20788617       8.97653229       6.55602501  F        0
H        1.92726146       8.79770260      10.59110356  F        0
H       11.52310955      19.83515307       9.21116341  F        0
H       14.56690736       6.77574372      12.16034191  F        0
H        6.74596320      16.92620537      10.74076342  F        0
H        3.68470478       7.32851759       5.08310689  F        0
H       15.75661379      12.42699387       9.00459924  F        0
H       15.75661380      17.16906248       9.00459925  F        0
H        4.37526294       4.01828352       7.26036481  F        0
H       14.91456245      13.24933472       6.30897701  F        0
H       14.91456244      16.34672163       6.30897701  F        0
H        7.92514400       4.01763560       6.85279547  F        0
H        8.61892990       7.41665368       4.74740481  F        0
H        1.73086689      12.60761804      10.35624453  F        0
H        4.05997682      15.72757570       9.28699687  F        0
H       12.25872463      13.00694285      19.04928406  F        0
H       12.34314048       9.29328245      18.81996388  F        0
H       13.65226955       8.06005012      15.57301841  F        0
H        4.05829635      10.79936776      17.66371281  F        0
H       15.58095515      11.20568437      16.50370227  F        0
H        3.12887899       8.92429365      13.74983426  F        0
H        7.89439933      10.75417195      19.94994328  F        0
H       11.09748793       6.69447189      17.27920164  F        0
H        4.34567170       7.30371036      17.50136906  F        0
H        5.67587981      15.71242072      13.88688066  F        0
H        2.98936131      13.24709329      13.39901228  F        0
H        8.00892554       6.80873427      19.65039775  F        0
H        5.99116592       4.00312854      15.91351272  F        0
Fe       8.54612502      10.28619041      11.45020207  T        0
Fe      10.98055716      12.27967544      11.30480688  T        1
O        9.91334919      11.16245443      12.24841285  T        2
