135
Lattice="24.397 0.0 0.0 0.0 24.397 0.0 0.0 0.0 24.397" Properties=species:S:1:pos:R:3:move_mask:L:1:tags:I:1 i=41 E=-6943.8331748197 regions="_JSON [\"Active\"]" n_terminators=24 energy=-949.1965196154988 pbc="F F F"
O        9.60536346      14.59476210      -0.01946112  T        0
O       12.30301887       9.48197286       2.58243384  T        0
O       14.90199640      20.82179528       6.40103069  T        0
O        9.31968317      18.01806845       3.75992712  T        0
O       15.63734130       9.80709460       6.52971776  T        0
O       21.08255329      12.19206741       3.47155002  T        0
O       20.96138166      15.75594764       0.08398579  T        0
O       18.22785167      20.84316663       2.48103975  T        0
O       14.74025495       9.53629215       0.08200243  T        0
O        9.65343118      12.26692389       2.47999327  T        0
O       20.68625705      14.85726576       6.53095315  T        0
O       18.30105860       9.41105347       3.47314759  T        0
O        9.67426595      15.59368384       6.40261826  T        0
O       12.47760683      21.17622311       3.75962913  T        0
O       15.90265042      20.89133926      -0.01753303  T        0
O       21.01645649      18.18990206       2.58264184  T        0
O       11.67947785      13.97626449       1.94834861  T        0
O       14.02631836      11.41456855       1.89145729  T        0
O       19.08137098      16.47064422       1.88959568  T        0
O       16.52028873      18.81633798       1.94774667  T        0
O       10.33295069      10.21877280       0.90251984  T        0
O       11.39603166      16.48503339       4.49969526  T        0
O       14.00833959      19.09839843       4.50069324  T        0
O       19.24589877      13.89269672       4.45687459  T        0
O       16.60205739      11.24942320       4.45692253  T        0
O       20.27497819      20.15970866       0.90587366  T        0
O       12.07065816      11.95363909       3.59718736  T        0
O       18.54316683      18.42516208       3.59692211  T        0
O       12.23798665       8.61454281       0.04872939  T        0
O        8.70327918      12.07346462      -0.02715106  T        0
O       12.18819059      14.57211071       6.22985554  T        0
O       11.84117126      18.65425490       3.07488236  T        0
O       15.92260626      18.30616849       6.22788494  T        0
O       18.19374416      15.77670138       6.07759013  T        0
O       18.46556352      12.02868454       2.75645329  T        0
O       14.72076754      12.30220143       6.07700569  T        0
O       18.42335009      21.79157028      -0.02736671  T        0
O       21.88175364      18.25920089       0.04831090  T        0
O       10.52985833      16.59484029       1.94688060  T        0
O       14.07868826      10.39972044       4.38589245  T        0
O       20.05870722      13.97717804       1.87422532  T        0
O       16.52521333      20.01571997       4.37483141  T        0
O       16.51782317      10.43435938       1.87456148  T        0
O       10.47857950      13.96857001       4.37621855  T        0
O       13.90240894      19.96617273       1.94850685  T        0
O       20.09569481      16.41534724       4.38497279  T        0
O       20.09527066      22.66411748       1.91137662  T        0
O        7.83008082      10.40153247       1.91164707  T        0
O       22.80547030      20.00880477       1.88229680  T        0
O       10.48759359       7.69020059       1.88172869  T        0
Al      10.86876672      15.27088915       0.91973525  T        0
Si      13.11036541      10.79462727       3.13390315  T        0
Si      19.66775395      15.25033135       0.94341279  T        0
Si      17.45575709      19.54428987       3.11888312  T        0
Si      15.24556312      10.82842432       0.94382477  T        0
Si      10.95113121      13.04014148       3.11888662  T        0
Al      15.22522833      19.62745816       0.91992347  T        0
Si      19.70184146      17.38472939       3.13329061  T        0
Si       9.11565085      11.23885256       1.31070297  T        0
Si      10.91844237      15.19846450       5.38936593  T        0
Si      13.06649072      19.70567511       3.28677101  T        0
Si      19.56430147      15.21389852       5.37604793  T        0
Si      17.47237477      10.79649051       3.14893742  T        0
Si      21.49582448      19.17254854       1.35227513  T        0
Si      11.32261625       9.00057185       1.35119824  T        0
Si      15.28108744      10.93042928       5.37605549  T        0
Si      19.69765113      13.02213347       3.14852801  T        0
Si      15.29585835      19.57642146       5.38858579  T        0
Si      10.78987691      17.42872898       3.28653349  T        0
Si      19.25654110      21.37906962       1.31139825  T        0
O       14.76576498      12.16273043      -2.60632572  T        0
O       15.85846850      18.30382691      -2.59458942  T        0
O       12.19214201      14.63730406      -2.59448545  T        0
O       18.33071670      15.73003875      -2.60780989  T        0
O       14.09449343      13.97679451      -0.77331203  T        0
O       16.51915558      16.40168100      -0.77257906  T        0
O       13.06066296      10.20742281      -1.90503291  T        0
O       10.13639611      12.94290532      -2.07140172  T        0
O       17.55194474      20.35979100      -2.07232961  T        0
O       20.28591634      17.43296699      -1.90268812  T        0
O       12.32979564      15.61195966      -0.04703478  T        0
O       15.69082387      12.02370039      -0.07545267  T        0
O       18.47288481      14.80583377      -0.07655649  T        0
O       14.88366953      18.16727479      -0.04772447  T        0
O       12.23152874      12.14209232      -3.49024949  T        0
O       18.35344307      18.26424516      -3.49070111  T        0
O       16.59661321      13.89899831      -1.74204535  T        0
O       14.10772459      10.41999612      -4.41265585  T        0
O       22.78929656      16.42282469      -1.71434967  T        0
O       16.53864344      19.94838173      -4.54328262  T        0
O        7.65151945      13.94263081      -1.65197321  T        0
O       14.09473650      16.40142943      -1.94240828  T        0
O       10.54698034      13.95745287      -4.54197326  T        0
O       16.55373752      22.84428314      -1.65182714  T        0
O       20.07619751      16.38830541      -4.41191185  T        0
O       14.07413400       7.70625582      -1.71472362  T        0
Si      15.31166035      12.98901895      -1.31938673  T        0
Si      15.29696183      17.37129626      -1.39443027  T        0
Si      13.12482648      15.19913243      -1.39450562  T        0
Si      17.50635301      15.18416644      -1.31962210  T        0
Si      13.51744710       9.00770662      -0.88315791  T        0
Si      11.24784044      13.40763063      -3.16258032  T        0
Si      17.08919944      21.46520561      -0.93246025  T        0
Si      19.27892245      16.97805693      -3.10833428  T        0
Si       9.03056927      13.40714568      -0.93251252  T        0
Si      13.51738518      11.21596384      -3.10858113  T        0
Si      21.48799099      16.97892587      -0.88225480  T        0
Si      17.08779755      19.24794530      -3.16334328  T        0
H       14.01033133      21.15748981       6.62630180  F        0
H        9.33839640      18.82463975       4.28720704  F        0
H       16.48559112       9.33840607       6.62628668  F        0
H       21.15750258      11.67126816       4.28721909  F        0
H       21.15748967      14.01033142       6.62630180  F        0
H       18.82463962       9.33839646       4.28720704  F        0
H        9.33840600      16.48559124       6.62628668  F        0
H       11.67126808      21.15750273       4.28721909  F        0
H       12.70105695      15.05290863       6.89848520  F        0
H       15.44301084      17.79487314       6.89846715  F        0
H       17.79487301      15.44301094       6.89846715  F        0
H       15.05290853      12.70105704       6.89848521  F        0
H       20.83112530      23.15241223       1.48839475  F        0
H        7.34352333       9.66479174       1.48837704  F        0
H       23.15241204      20.83112542       1.48839475  F        0
H        9.66479163       7.34352337       1.48837704  F        0
H       13.68673308       9.66480596      -4.85513656  F        0
H       23.15240156      16.80916493      -2.53384338  F        0
H       16.80913871      20.83112323      -4.85512183  F        0
H        7.34352146      13.68671965      -2.53387758  F        0
H        9.66480591      13.68673318      -4.85513656  F        0
H       16.80916481      23.15240172      -2.53384338  F        0
H       20.83112308      16.80913882      -4.85512183  F        0
H       13.68671953       7.34352150      -2.53387758  F        0
Fe      13.62001848      14.48052095       1.44970603  T        0
Fe      16.01654382      16.87716401       1.44880096  T        1
O       15.18107822      15.31609012       1.92245751  T        2
