135
Lattice="19.123 0.0 0.0 0.0 14.277 0.0 0.0 0.0 7.5465" Properties=species:S:1:pos:R:3:move_mask:L:1:tags:I:1 i=128 E=-2603.9155142701 regions="_JSON [\"Active\"]" n_terminators=34 energy=-895.9950606605094 pbc="F F F"
O       15.71079457       8.29707604       5.53462321  T        0
O       12.66768570       0.99472692       1.93578208  T        0
O       15.52598058       5.71066101       5.93643874  T        0
O       12.85581756      13.03729660       2.11059974  T        0
O       12.93472060      13.19111232       6.00282810  T        0
O       15.39166286       5.82702517       1.92372336  T        0
O       12.98071560       1.09631776       6.03785460  T        0
O       15.68251906       8.45637421       1.95466735  T        0
O       17.03639064      10.72020159       6.52037941  T        0
O       11.59086984       3.43528950       2.37752745  T        0
O       16.96429281       3.56076627       6.44401182  T        0
O       11.85459253      10.63355119       2.41494063  T        0
O       11.67022553      10.91789397       5.08318976  T        0
O       17.11923466       3.68605478       1.42288815  T        0
O       11.87020643       3.42488303       5.03845108  T        0
O       17.03762349      10.74247272       1.26507227  T        0
O       16.34271685      10.10005792       3.74798817  T        0
O       12.49081176       2.80227060      -0.07441309  T        0
O       16.26368547       4.10640130       3.90788330  T        0
O       12.68708789      11.36823175      -0.04685240  T        0
O       14.25836216      10.85969893       5.66370114  T        0
O       14.22869762       3.11361698       1.92010724  T        0
O       14.43660850       3.28470907       5.65116618  T        0
O       14.45885308      10.88125228       1.87710907  T        0
O       11.40771647       8.47425355       3.94475815  T        0
O       17.19125111       1.24639494       0.20749635  T        0
O       11.53296085       5.76376708       3.72628298  T        0
O       17.32322334      13.14031963      -0.02210494  T        0
O        9.49927362      10.38467525       3.53191686  T        0
O        9.50150263       3.96657739       4.06413375  T        0
O       13.36588189       7.08059629       5.13059100  T        0
O       13.28405801       7.36581583       2.45318693  T        0
O       14.31564715       7.31081307      -0.03139884  T        0
Al      15.79621489      10.13299756       5.47559531  T        0
Si      12.74278973       2.60686273       1.53770876  T        0
Si      15.79366253       4.15774085       5.48722022  T        0
Si      12.95380593      11.48197167       1.56903643  T        0
Si      12.84725909      11.52973702       6.07792217  T        0
Al      15.54453296       4.11729135       2.24899785  T        0
Si      12.94509119       2.75047605       6.06926122  T        0
Si      15.84950084      10.11836509       2.18524023  T        0
Si      11.09780981      10.09522481       3.78336045  T        0
Si      17.56009068       2.84802848       0.03723524  T        0
Si      11.10763579       4.16324194       3.78017641  T        0
Si      17.57533495      11.50153603      -0.10296297  T        0
Si      14.69268982       7.10960849       6.07857423  T        0
Si      14.63640513       7.19940824       1.55642107  T        0
Si      12.38091738       7.16508938       3.81615317  T        0
O       21.61454622       3.18672282       8.99287640  T        0
O       21.01647869       1.18330724       7.30114441  T        0
O       19.18056349       2.99665325       7.77085398  T        0
O       19.22708724      11.32928198       8.03519000  T        0
O       24.04707727       7.37245985       7.61309429  T        0
Si      20.81404857       2.78990507       7.59697524  T        0
O       22.51194713       8.39535110       5.55669025  T        0
O       22.92624922       5.78498680       5.70076013  T        0
O       22.42268423       5.90546732       1.82561253  T        0
O       21.31783028       3.70539373       6.29794739  T        0
O       21.54472305       3.49400176       1.26509888  T        0
O       22.39723823       4.01740329       3.77664003  T        0
O       24.22785678       3.97643782       1.73727690  T        0
O       23.79262980       3.17816719       5.97269525  T        0
O       20.92804613       1.12026923       0.09692351  T        0
O       19.19961065       3.03964579      -0.05311556  T        0
O       19.17444680      11.21718976      -0.34677436  T        0
O       25.06349918       7.39798292       5.20549439  T        0
Si      22.61793887       4.19425591       5.41172710  T        0
Si      22.65923611       4.31164337       2.17031756  T        0
Si      20.83611903       2.76015318      -0.04412450  T        0
Si      23.61855590       7.24399744       6.01312747  T        0
O       21.53951113       3.20505967      -1.47259684  T        0
O       16.82189862       3.23650902       9.14423911  T        0
O       16.83143324      11.05457131       9.20929329  T        0
O       12.50664910       3.25705980       7.57793928  T        0
O       12.34486545      11.13443260       7.60903709  T        0
O       17.34377235       1.10392314       7.57281470  T        0
O       17.36146267      13.19860828       7.64311169  T        0
O       14.20433165       7.38909790       7.62625059  T        0
Si      17.55686655       2.73391333       7.73921791  T        0
Si      17.59172223      11.55094377       7.80057711  T        0
O       15.54044464       8.48249945      -2.09132859  T        0
O       15.50128587       5.82538859      -1.96051298  T        0
O       12.80445355      13.08071147      -2.14534880  T        0
O       12.83824744       1.21184737      -2.26145681  T        0
O       16.77641216      10.79480051      -1.34622502  T        0
O       16.79325975       3.55042998      -1.24569260  T        0
O       11.54405682      10.73193435      -2.37714277  T        0
O       11.53088116       3.53941359      -2.38520362  T        0
O       16.30169679      10.39467508      -3.85657023  T        0
O       16.23682644       3.95356259      -3.79747478  T        0
O       14.23830557      10.79600663      -2.15324194  T        0
O       14.23319088       3.49420669      -2.00882456  T        0
O       13.14261060       7.17363182      -2.30577837  T        0
Si      15.69888030      10.09962261      -2.35568003  T        0
Si      15.67477125       4.21408219      -2.26499361  T        0
Si      12.83531332      11.48926469      -1.68555038  T        0
Si      12.79927652       2.76290858      -1.68312148  T        0
Si      14.64306735       7.18705545      -1.62798303  T        0
H       13.50938118       0.51971906       2.07492992  F        0
H       13.50958039      13.75682243       2.07498241  F        0
H       13.51084140      13.75504172       5.44776650  F        0
H       13.50975252       0.52161770       5.44778410  F        0
H       16.56036088       0.51548555      -0.00076213  F        0
H       16.56020813      13.76127004      -0.00066979  F        0
H        8.59739021      10.07362933       3.76217937  F        0
H        8.59637561       4.20354031       3.76204115  F        0
H       22.00636260       3.98381786       9.40800429  F        0
H       21.68544240       0.51556882       7.54734209  F        0
H       20.08739461      11.34211663       7.54749186  F        0
H       23.63198861       7.14016697       8.47499567  F        0
H       22.48911374       9.37433505       5.45534891  F        0
H       23.06898247       6.62073046       1.68518482  F        0
H       24.75935035       3.15857028       1.68481677  F        0
H       24.75385446       3.15950316       5.84781029  F        0
H       21.68544240       0.51556882       0.00084209  F        0
H       20.08739461      11.34211663       0.00099186  F        0
H       25.36244212       7.13797332       4.30618001  F        0
H       21.98145514       3.97853683      -1.88343379  F        0
H       16.24121950       3.98053732       9.41400179  F        0
H       16.24088130      10.29526047       9.41338238  F        0
H       12.76321398       2.97604733       8.47995589  F        0
H       12.76333233      11.30075111       8.47967776  F        0
H       16.56036088       0.51548555       7.54573787  F        0
H       16.56020813      13.76127004       7.54583021  F        0
H       14.61405599       7.13800201       8.47661577  F        0
H       13.51084140      13.75504172      -2.09873350  F        0
H       13.50975252       0.52161770      -2.09871590  F        0
H       11.39521725      10.28762784      -3.24237523  F        0
H       11.39412799       3.98861071      -3.24188863  F        0
H       15.92569105      10.11584057      -4.70878458  F        0
H       15.92661844       4.15901570      -4.70770176  F        0
H       12.88191441       7.13773895      -3.23957932  F        0
Fe      17.90974285       5.03835433       2.82492061  T        0
Fe      16.88317576       7.95417803       3.83111691  T        1
O       18.18834920       6.71253029       3.45866643  T        2
