148
Lattice="24.397 0.0 0.0 0.0 24.397 0.0 0.0 0.0 24.397" Properties=species:S:1:pos:R:3:move_mask:L:1:tags:I:1 i=41 E=-6943.8331748197 regions="_JSON [\"Active\"]" n_terminators=24 energy=-1049.6033884016033 pbc="F F F"
O        9.57019302      14.68087377      -0.03187882  T        0
O       12.25976511       9.55075644       2.54502595  T        0
O       14.85300633      21.08445052       6.14337319  T        0
O       12.19456704      15.66753734       8.88618262  T        0
O        9.92966191      18.80432815       3.51828360  T        0
O       15.59805146       9.47082196       6.25046942  T        0
O       18.31374701      14.83719225       8.87789118  T        0
O       21.10507624      12.24340857       3.50128771  T        0
O       20.87904446      15.73279862      -0.02484007  T        0
O       18.31533930      20.91864194       2.57324985  T        0
O       14.55325139       9.66120193      -0.04611638  T        0
O        9.50384131      12.33988631       2.52386904  T        0
O       21.05542651      14.86885090       6.17972763  T        0
O       15.67491974      12.20830734       8.88523026  T        0
O       18.29231268       9.39198414       3.48410005  T        0
O        9.43166582      15.67916758       6.08956029  T        0
O       14.83701721      18.31284313       8.88899817  T        0
O       12.13970546      21.00051655       3.44422920  T        0
O       15.79862625      20.79002460      -0.12061214  T        0
O       20.92462308      18.30308313       2.55114582  T        0
O       11.62042185      13.85529648       1.82023803  T        0
O       13.86792946      11.62395636       2.00487186  T        0
O       19.14110014      16.43415483       1.87709654  T        0
O       16.44790828      19.13580165       1.90249769  T        0
O       10.25852668      10.31480701       0.94365698  T        0
O       11.32641511      16.71696784       4.52356854  T        0
O       14.03521673      19.27269854       4.33839088  T        0
O       13.99035994      16.51941103       7.04972302  T        0
O       19.25069351      14.00681074       4.35419930  T        0
O       16.56797881      11.23748802       4.45832426  T        0
O       16.50630503      14.00592874       7.04804585  T        0
O       20.28655445      20.28239842       0.84270520  T        0
O       11.88656916      11.95842946       3.69732861  T        0
O       18.42589098      18.40067113       3.49440700  T        0
O       12.07416886       8.67841166      -0.01173106  T        0
O        8.64365263      12.16169662      -0.01369716  T        0
O       12.04175560      14.90275655       6.29545360  T        0
O       12.32507141      18.33820376       2.60405709  T        0
O       15.59856058      18.46875218       6.30332094  T        0
O       18.45671542      15.61951729       6.28626823  T        0
O       18.48909701      12.01212999       2.83274408  T        0
O       14.87078513      12.07274396       6.29247034  T        0
O       18.27344448      21.81568066       0.06482402  T        0
O       21.77924448      18.26236675       0.01222479  T        0
O       10.49814808      16.57664971       1.99080453  T        0
O       13.97125021      10.43648520       4.40835582  T        0
O       20.03244007      13.92026540       1.77740202  T        0
O       16.57451727      20.07897950       4.40811711  T        0
O       16.53843702      10.45455803       1.89128420  T        0
O       10.49178627      14.14396650       4.24865278  T        0
O       13.98990304      20.15212644       1.76681580  T        0
O       20.09012156      16.54879202       4.39249794  T        0
O       20.02178572      22.77928251       1.87764607  T        0
O        7.72274809      10.47326212       1.88490379  T        0
O       16.54911426      16.55162912       7.89448367  T        0
O       13.96055332      13.97052857       7.90575380  T        0
O       22.79949945      19.98823931       1.82300028  T        0
O       10.40941898       7.79019313       1.93004230  T        0
Al      10.86102059      15.23919953       0.93765712  T        0
Si      12.98876970      10.86613660       3.18381404  T        0
Si      19.61609601      15.22168602       0.88717163  T        0
Si      17.45819016      19.63817449       3.10783640  T        0
Al      15.18260032      10.90320725       0.95333316  T        0
Si      10.86540495      13.06887709       3.07184768  T        0
Si      15.28077238      19.64446824       0.89800318  T        0
Si      19.65837001      17.41352096       3.08047227  T        0
Si       9.02242698      11.31231551       1.32548036  T        0
Si      10.83950749      15.34310845       5.29537025  T        0
Si      13.11559073      19.74303079       3.09103336  T        0
Si      15.23996864      17.45814606       7.53803043  T        0
Si      19.70859004      15.24882824       5.30971097  T        0
Si      17.46310000      10.77895307       3.14934771  T        0
Si      15.26438162      13.05414511       7.53036038  T        0
Si      21.45006165      19.21621228       1.29790777  T        0
Si      11.24801280       9.07363451       1.33607520  T        0
Si      15.26711735      10.80704654       5.34286611  T        0
Si      19.70908241      13.03511881       3.11914103  T        0
Si      17.46465514      15.24398946       7.52322809  T        0
Si      15.27479673      19.71894041       5.32626061  T        0
Si      10.93547071      17.54952922       3.17723228  T        0
Si      13.04740654      15.26899330       7.53299892  T        0
Si      19.24459127      21.44429431       1.32997120  T        0
O       14.72377367      12.09436652      -2.51203918  T        0
O       15.74632277      18.51009121      -2.46188436  T        0
O       11.98742216      14.89371183      -2.56598719  T        0
O       18.31187733      15.72753248      -2.62460692  T        0
O       13.88435324      14.09920611      -0.91952118  T        0
O       16.46446621      16.50283046      -0.85865984  T        0
O       12.88409153      10.13804205      -2.08564958  T        0
O       10.11369015      13.00480119      -2.05230009  T        0
O       17.61887338      20.36742887      -2.04707352  T        0
O       20.27012698      17.46578377      -1.99882911  T        0
O       12.22958685      15.91034106      -0.03605882  T        0
O       15.43159475      12.43901737       0.11012140  T        0
O       18.36777490      14.82961585      -0.09703499  T        0
O       14.73046096      18.29770724       0.04843481  T        0
O       12.26711406      12.35479842      -3.43222792  T        0
O       18.22475846      18.23975879      -3.49468751  T        0
O       16.44822127      14.01875883      -1.80784457  T        0
O       13.93872827      10.55267225      -4.53430965  T        0
O       22.75703697      16.43136093      -1.72717879  T        0
O       16.44179288      20.01945308      -4.46714360  T        0
O        7.63505889      14.02191448      -1.67399466  T        0
O       13.97005379      16.61740168      -1.86926241  T        0
O       10.49505231      14.06365432      -4.52258463  T        0
O       16.46998228      22.78973749      -1.69518753  T        0
O       19.98455449      16.47182205      -4.51241987  T        0
O       13.94394171       7.67474566      -1.66084630  T        0
Si      15.17387406      13.11851458      -1.32983604  T        0
Si      15.25366192      17.47015911      -1.32548770  T        0
Si      12.98825791      15.39335168      -1.39817632  T        0
Si      17.41840405      15.25236507      -1.34294390  T        0
Si      13.37976986       9.04502274      -0.94448072  T        0
Si      11.20151761      13.55044073      -3.13442341  T        0
Si      17.06176495      21.45167981      -0.95545611  T        0
Si      19.22058265      16.98464049      -3.15565600  T        0
Si       8.99646440      13.47768561      -0.92930130  T        0
Si      13.44005960      11.25663146      -3.13342444  T        0
Si      21.42587478      16.98027326      -0.93739451  T        0
Si      17.03601708      19.28594362      -3.12868649  T        0
H       14.01033133      21.15748981       6.62630180  F        0
H       11.67124922      16.48560174       8.95913012  F        0
H        9.33839640      18.82463975       4.28720704  F        0
H       16.48559112       9.33840607       6.62628668  F        0
H       18.82464116      14.01032609       8.95915608  F        0
H       21.15750258      11.67126816       4.28721909  F        0
H       21.15748967      14.01033142       6.62630180  F        0
H       16.48560162      11.67124930       8.95913012  F        0
H       18.82463962       9.33839646       4.28720704  F        0
H        9.33840600      16.48559124       6.62628668  F        0
H       14.01032599      18.82464129       8.95915608  F        0
H       11.67126808      21.15750273       4.28721909  F        0
H       20.83112530      23.15241223       1.48839475  F        0
H        7.34352333       9.66479174       1.48837704  F        0
H       23.15241204      20.83112542       1.48839475  F        0
H        9.66479163       7.34352337       1.48837704  F        0
H       13.68673308       9.66480596      -4.85513656  F        0
H       23.15240156      16.80916493      -2.53384338  F        0
H       16.80913871      20.83112323      -4.85512183  F        0
H        7.34352146      13.68671965      -2.53387758  F        0
H        9.66480591      13.68673318      -4.85513656  F        0
H       16.80916481      23.15240172      -2.53384338  F        0
H       20.83112308      16.80913882      -4.85512183  F        0
H       13.68671953       7.34352150      -2.53387758  F        0
Fe      13.84748676      13.61908783       1.43629714  T        0
Fe      13.49439849      16.89657935       1.41337131  T        1
O       14.90321937      15.42810780       1.51961636  T        2
O       13.94700653      15.35077996       2.65835294  T        3
