142
Lattice="19.123 0.0 0.0 0.0 14.277 0.0 0.0 0.0 7.5465" Properties=species:S:1:pos:R:3:move_mask:L:1:tags:I:1 i=128 E=-2603.9155142701 regions="_JSON [\"Active\"]" n_terminators=34 energy=-949.203350995574 pbc="F F F"
O       15.72634256       8.33414412       5.55256457  T        0
O       12.70225027       1.06283658       1.99963751  T        0
O       15.45036577       5.75467401       5.54244071  T        0
O       13.07079362      13.14316228       1.46621391  T        0
O       12.78107873      13.11239491       5.39744533  T        0
O       15.60421459       5.79528451       1.91967558  T        0
O       12.91092151       1.08649445       5.97115629  T        0
O       15.65611530       8.43167387       1.88001511  T        0
O       17.09054582      10.91822722       6.29713361  T        0
O       11.63804878       3.48653051       2.38911071  T        0
O       16.95905518       3.95966327       6.61094386  T        0
O       11.83173086      10.85490118       2.43188124  T        0
O       11.62390881      10.78548807       5.11590527  T        0
O       17.14942830       3.76447773       1.31844066  T        0
O       11.91055228       3.45993579       5.05084129  T        0
O       16.95587677      10.74988547       1.22131776  T        0
O       16.34797800      10.04360243       3.69939570  T        0
O       12.45318513       2.78148020      -0.07908147  T        0
O       16.09098257       3.74025500       3.99224843  T        0
O       12.72598277      11.16005238      -0.10682654  T        0
O       14.25870693      10.85635571       5.64045455  T        0
O       14.26390865       3.22643017       1.79298082  T        0
O       14.42398341       3.30976651       6.02936453  T        0
O       14.40891159      10.83697006       1.95785843  T        0
O       11.44723604       8.49935351       3.72538932  T        0
O       17.15257943       1.26265054       0.25977172  T        0
O       11.51181281       5.79191336       3.78844963  T        0
O       17.31040303      13.13010481      -0.09169149  T        0
O        9.48482669      10.37040134       3.46432883  T        0
O        9.50967134       3.95746468       4.04275177  T        0
O       13.29125760       7.25040249       5.19098471  T        0
O       13.38702068       7.17095366       2.49459089  T        0
O       14.31978480       7.12901547      -0.02973545  T        0
Al      15.81357595      10.16408787       5.40869089  T        0
Si      12.78245280       2.65707412       1.52976071  T        0
Si      15.73903769       4.13674788       5.51104443  T        0
Si      12.98729894      11.49778572       1.47052498  T        0
Si      12.83271286      11.54066006       5.94939537  T        0
Al      15.67290539       4.02033201       2.33294256  T        0
Si      12.89821519       2.73059042       6.13862387  T        0
Si      15.82134559      10.07559600       2.15536403  T        0
Si      11.09186516      10.11433161       3.71166641  T        0
Si      17.56879433       2.84601080      -0.00862869  T        0
Si      11.12427830       4.17887239       3.79613313  T        0
Si      17.57875460      11.49666532      -0.10267906  T        0
Si      14.70262484       7.11466660       6.01622136  T        0
Si      14.70221178       7.10876819       1.54343863  T        0
Si      12.39764018       7.16826993       3.81063489  T        0
O       19.21577783      11.31879156       8.00499859  T        0
O       22.91643359       5.78210970       1.86987750  T        0
O       22.91630589       8.48872156       1.89315025  T        0
O       21.53662262       3.61465526       1.18892724  T        0
O       21.55564849      10.66145237       1.19235391  T        0
O       21.97119952      10.19377930       3.78848163  T        0
O       21.96837368       4.09640324       3.77885247  T        0
O       24.03208797       3.31183121       2.31930509  T        0
O       24.04451825      10.95555529       2.33317793  T        0
O       20.96462392       1.14929116       0.15921487  T        0
O       20.96994567      13.12113560       0.16140229  T        0
O       19.20628075       3.00363608      -0.13471816  T        0
O       19.20677823      11.25445184      -0.09699516  T        0
O       25.23108857       7.13667121       2.25425694  T        0
O       24.17653099       7.15599312      -0.11458997  T        0
Si      22.63507962       4.20384332       2.27047824  T        0
Si      22.64468251      10.07009742       2.28215700  T        0
Si      20.84242465       2.77857354      -0.06298335  T        0
Si      20.84422277      11.49282655      -0.05143841  T        0
Si      23.76129494       7.13727175       1.49165107  T        0
O       21.54861931      11.07639635      -1.49595997  T        0
O       21.58470379       3.17124726      -1.49369677  T        0
O       12.82086343      13.07258885       9.74065245  T        0
O       15.74785948       5.87096308       9.71935780  T        0
O       15.50228136       8.47042984       9.69990902  T        0
O       11.52825162      10.73248696       9.90651189  T        0
O       16.81192404      10.73787914       8.90714505  T        0
O       16.17033248      10.49552019      11.39153653  T        0
O       12.28701652       3.08146765       7.63297864  T        0
O       12.51861114      11.47597700       7.56836913  T        0
O       14.21614569      10.77095556       9.52745754  T        0
O       17.31281811      13.19037160       7.81522731  T        0
O       13.21807734       6.94917381       9.87586827  T        0
O       14.46326124       7.12329976       7.62397241  T        0
Si      12.79824479      11.50920886       9.18768595  T        0
Si      15.66961698      10.10415203       9.87305262  T        0
Si      17.60203532      11.54716785       7.69860841  T        0
Si      14.73900922       7.09142572       9.24298159  T        0
O       15.53837792       8.46600116      -1.99976349  T        0
O       15.50101839       5.79089708      -2.05148560  T        0
O       12.82629329      13.05564900      -2.10524414  T        0
O       12.82623531       1.19930861      -2.26192279  T        0
O       16.86804233      10.75732195      -1.38589681  T        0
O       16.78893171       3.48326952      -1.31399786  T        0
O       11.57722441      10.71924848      -2.38722928  T        0
O       11.50849633       3.51503882      -2.39610807  T        0
O       16.38789680      10.24638247      -3.86450281  T        0
O       16.20992415       3.85252487      -3.82377852  T        0
O       14.31118785      10.81556192      -2.23280229  T        0
O       14.21013961       3.48863378      -2.00788537  T        0
O       13.15330388       7.17690956      -2.30833573  T        0
Si      15.75563585      10.05616332      -2.35621250  T        0
Si      15.66808634       4.17015609      -2.29585403  T        0
Si      12.89039788      11.44807423      -1.71784150  T        0
Si      12.78186092       2.75238544      -1.68178050  T        0
Si      14.65851249       7.13191241      -1.63221055  T        0
H       13.50938118       0.51971906       2.07492992  F        0
H       13.50958039      13.75682243       2.07498241  F        0
H       13.51084140      13.75504172       5.44776650  F        0
H       13.50975252       0.52161770       5.44778410  F        0
H       17.28979000       3.14560285       7.02339196  F        0
H       16.56036088       0.51548555      -0.00076213  F        0
H       16.56020813      13.76127004      -0.00066979  F        0
H        8.59739021      10.07362933       3.76217937  F        0
H        8.59637561       4.20354031       3.76204115  F        0
H       20.08739461      11.34211663       7.54749186  F        0
H       22.31947477      10.11404518       4.70477207  F        0
H       22.31579804       4.15795734       4.69750931  F        0
H       24.75935035       3.15857028       1.68481677  F        0
H       24.75845825      11.12041654       1.68709931  F        0
H       21.68544240       0.51556882       0.00084209  F        0
H       21.68557806      13.76129914       0.00087584  F        0
H       25.36301829       7.13882896       3.22257540  F        0
H       23.63475007       7.13509558      -0.92932085  F        0
H       22.00608000      10.28902905      -1.85963567  F        0
H       21.98145514       3.97853683      -1.88343379  F        0
H       13.50958039      13.75682243       9.62148241  F        0
H       15.75706449       4.89440344       9.62693705  F        0
H       11.39439525      10.28733182      10.77116771  F        0
H       15.92688062      10.11457984      12.25007275  F        0
H       12.76321398       2.97604733       8.47995589  F        0
H       16.56020813      13.76127004       7.54583021  F        0
H       12.88235039       7.13795337      10.76981689  F        0
H       13.51084140      13.75504172      -2.09873350  F        0
H       13.50975252       0.52161770      -2.09871590  F        0
H       11.39521725      10.28762784      -3.24237523  F        0
H       11.39412799       3.98861071      -3.24188863  F        0
H       15.92569105      10.11584057      -4.70878458  F        0
H       15.92661844       4.15901570      -4.70770176  F        0
H       12.88191441       7.13773895      -3.23957932  F        0
Fe      16.86310764       7.89929231       3.85972612  T        0
Fe      17.72447668       5.81668592       1.55294054  T        1
O       18.05630008       6.73393917       3.10082427  T        2
O       18.25725564       6.38287756       0.06619027  T        3
