147
Lattice="19.123 0.0 0.0 0.0 14.277 0.0 0.0 0.0 7.5465" Properties=species:S:1:pos:R:3:move_mask:L:1:tags:I:1 i=128 E=-2603.9155142701 regions="_JSON [\"Active\"]" n_terminators=34 energy=-992.1482352119642 pbc="F F F"
O       15.68968690       8.28608274       5.60402925  T        0
O       12.93033962       1.07070657       1.51571763  T        0
O       15.77877908       5.80180584       5.57862295  T        0
O       13.05285322      12.98286153       1.89965273  T        0
O       13.03356091      13.01422066       5.68093321  T        0
O       15.37574619       5.78353161       1.81687342  T        0
O       12.75227241       1.12898755       5.52024951  T        0
O       15.58219981       8.38617073       1.73843570  T        0
O       17.22321308      10.62281535       6.18060234  T        0
O       11.89105319       3.40662828       2.49962639  T        0
O       17.13759101       3.33432792       6.21274324  T        0
O       11.83930479      10.69056360       2.47367580  T        0
O       11.75863545      10.73658662       5.15933265  T        0
O       16.92284771       3.98686340       0.85738312  T        0
O       11.63927008       3.49738413       5.16379844  T        0
O       16.95235337      10.57943361       1.09222045  T        0
O       16.02442600      10.27640270       3.56872441  T        0
O       12.34205164       3.14285824      -0.06691427  T        0
O       16.23726140       3.92363143       3.51573919  T        0
O       12.27184153      11.31970760      -0.08640124  T        0
O       14.35090631      10.74029181       5.94639939  T        0
O       14.44357778       3.26798054       1.65107837  T        0
O       14.28999888       3.36391818       5.62724168  T        0
O       14.34739705      10.70891899       1.49124146  T        0
O       11.40045259       8.43128103       3.86352194  T        0
O       11.43390918       5.75343542       3.71609003  T        0
O       16.97627862      12.94444004      -0.15688973  T        0
O        9.51425382      10.42306317       3.72023074  T        0
O        9.48888776       3.86180679       3.52615363  T        0
O       13.35991398       7.01304913       5.03490979  T        0
O       13.22870423       7.24254613       2.35986349  T        0
O       14.04330483       7.16920970      -0.13474470  T        0
Al      15.75505062      10.04169964       5.25636915  T        0
Si      12.92149795       2.72354560       1.42285932  T        0
Al      15.85387212       3.98968887       5.22171749  T        0
Si      12.88438905      11.41681112       1.44781571  T        0
Si      12.90627208      11.43084504       6.10802580  T        0
Si      15.74799255       4.19912571       2.00563321  T        0
Si      12.85589162       2.72731635       5.97693101  T        0
Si      15.72905950       9.99916448       2.01114438  T        0
Si      11.11370578      10.05518084       3.80737353  T        0
Si      11.10149626       4.13331580       3.74405338  T        0
Si      17.54748473      11.39567162      -0.18912911  T        0
Si      14.69187675       7.01253520       5.95176498  T        0
Si      14.57350443       7.13701711       1.43049452  T        0
Si      12.35036965       7.10274570       3.72980839  T        0
O       21.64141389      11.08848984       8.96406857  T        0
O       21.05479095      13.07404769       7.25352421  T        0
O       19.20671723       2.97419980       7.98461686  T        0
O       19.21236411      11.19155774       7.60456813  T        0
O       24.05750372       6.94427392       7.61013163  T        0
Si      20.86549851      11.48994951       7.57963037  T        0
O       22.89822101       8.47013314       5.68196671  T        0
O       22.52412423       5.86754390       5.56708325  T        0
O       22.43235290       8.35879541       1.92199835  T        0
O       21.26378254      10.51707054       6.24542886  T        0
O       21.55201010      10.77506376       1.23625977  T        0
O       22.37861164      10.29506019       3.76607064  T        0
O       23.79586268      11.05354070       5.99291475  T        0
O       24.23557365      10.29898315       1.77244662  T        0
O       20.93193641      13.15921476       0.10882593  T        0
O       19.19627777      11.28836095      -0.11020618  T        0
O       25.07385063       6.90526151       5.21567673  T        0
Si      22.64958019      10.04784098       5.36152248  T        0
Si      22.65203981       9.97277730       2.14833031  T        0
Si      20.82552967      11.52763035      -0.06641528  T        0
Si      23.62405393       7.01750239       6.01072866  T        0
O       21.58003325      11.08324755      -1.47170010  T        0
O       13.12236491      15.84786949       9.91293282  T        0
O       17.39433679      15.53731372       7.49069856  T        0
O       15.27523415      14.52615938       8.86725771  T        0
O       14.59734987      14.24246257      11.41358742  T        0
Si      13.99004329      14.44727959       9.89119210  T        0
Si      16.21525231      14.38886159       7.53679146  T        0
O       12.78890596      15.55638213       1.68862305  T        0
O       12.86102174      15.55563363       5.94053475  T        0
O       17.33430277      15.53386367      -0.05249839  T        0
O       15.22092203      14.42373029       1.25256546  T        0
O       15.29487902      14.40070399       6.18338248  T        0
O       14.20762943      14.52831247       3.76155006  T        0
Si      13.84778926      14.37981766       2.15628822  T        0
Si      13.86221358      14.37457226       5.36403052  T        0
Si      16.16087173      14.37473503      -0.10543389  T        0
O       15.26374078      14.62809044      -1.47952103  T        0
O       12.79665954       1.17907711       9.72893661  T        0
O       13.06292769      13.16079823       9.47730249  T        0
O       15.47646021       5.77276830       9.61317284  T        0
O       15.48398167       8.41548914       9.48999765  T        0
O       11.51820797       3.51973445       9.92128597  T        0
O       11.64313411      11.10309392      10.29067822  T        0
O       16.78009149       3.51796180       8.84733904  T        0
O       16.84038191      10.63183564       8.86023575  T        0
O       16.30382284      10.20929156      11.35469307  T        0
O       12.57156200       2.85315946       7.60056991  T        0
O       16.27139806       3.88397204      11.38064878  T        0
O       12.45029724      11.30339575       7.69295688  T        0
O       14.21941189       3.45270040       9.65204436  T        0
O       14.25289944      10.76844591       9.63561379  T        0
O       17.32952777       1.08063667       7.77378830  T        0
O       17.08020066      12.97586656       7.58528991  T        0
O       13.10463685       7.14946461       9.82341757  T        0
O       14.30280088       6.99779847       7.53190274  T        0
Si      12.80195315       2.75644715       9.21699354  T        0
Si      12.85292262      11.54899118       9.26310276  T        0
Si      15.68158793       4.15001859       9.86164802  T        0
Si      15.67270389      10.00292807       9.84930612  T        0
Si      17.60062654       2.72570859       7.63804805  T        0
Si      17.50524011      11.41562749       7.60152507  T        0
Si      14.60790984       7.07070043       9.13961128  T        0
O       17.11014518      10.66494849      -1.61423634  T        0
H       13.50938118       0.51971906       2.07492992  F        0
H       13.50975252       0.52161770       5.44778410  F        0
H       17.29134854       3.14797220       0.53999843  F        0
H       12.76076393       2.97683097      -0.93375646  F        0
H       12.76174962      11.29928001      -0.93393629  F        0
H        8.59739021      10.07362933       3.76217937  F        0
H        8.59637561       4.20354031       3.76204115  F        0
H       14.60982961       7.13673871      -0.92783774  F        0
H       22.00483182      10.29715766       9.41435165  F        0
H       21.68557806      13.76129914       7.54737584  F        0
H       20.08726577       2.93486642       7.54597012  F        0
H       23.63198861       7.14016697       8.47499567  F        0
H       22.48364390       4.89097090       5.45283813  F        0
H       23.06957714       7.66254159       1.68550051  F        0
H       24.76092223      11.11473374       5.84604825  F        0
H       24.75845825      11.12041654       1.68709931  F        0
H       21.68557806      13.76129914       0.00087584  F        0
H       25.36244212       7.13797332       4.30618001  F        0
H       22.00608000      10.28902905      -1.85963567  F        0
H       12.92965576      16.51835623       9.23229795  F        0
H       17.37010602      16.51224957       7.54725802  F        0
H       14.07270598      14.27710018      12.23669175  F        0
H       12.92965576      16.51835623       1.68579795  F        0
H       12.92837698      16.51830622       5.84502133  F        0
H       17.37010602      16.51224957       0.00075802  F        0
H       14.44051635      14.27852190      -1.88177140  F        0
H       13.50938118       0.51971906       9.62142992  F        0
H       11.39369377       3.98884644      10.77146895  F        0
H       11.39439525      10.28733182      10.77116771  F        0
H       15.92688062      10.11457984      12.25007275  F        0
H       15.92754156       4.15729643      12.25107281  F        0
H       16.56036088       0.51548555       7.54573787  F        0
H       12.88235039       7.13795337      10.76981689  F        0
H       16.24044124      10.28985035      -1.86101282  F        0
Fe      19.11549680       9.67493796       5.92053813  T        0
Fe      17.34312979       7.05132077       5.25174219  T        1
O       18.90337811       7.99680514       5.24328834  T        2
