150
Lattice="20.102 0.0 0.0 0.0 19.731 0.0 0.0 0.0 13.253" Properties=species:S:1:pos:R:3:move_mask:L:1:tags:I:1 i=77 E=-3472.0240129048 regions="_JSON [\"Active\"]" n_terminators=32 energy=-1029.882132370276 pbc="F F F"
O       10.05856772       8.62813825       9.07363140  T        0
O        9.86499840      18.81441022       3.95272441  T        0
O        9.86012299      11.15748036       3.68756958  T        0
O        7.95501079       8.79500614      10.58331555  T        0
O       12.07633757      18.73016635       2.48270699  T        0
O       17.81284892       8.42361658       9.30765674  T        0
O       12.43526829      11.08574333       2.80562147  T        0
O        7.91460497       7.19744667       8.36077984  T        0
O       12.04947971      17.61697198       4.91973410  T        0
O       11.53097069      12.62124298       4.89021291  T        0
O        7.86205275       9.84506584       8.10300696  T        0
O       11.99190477      20.29816263       4.66362736  T        0
O       11.78615768       9.97003087       5.14954907  T        0
O       16.30841390       8.97876516       7.27119612  T        0
O       13.57789846      11.02204184       0.46506711  T        0
O       16.76193951      10.90350380       9.09267163  T        0
O       13.68098890       8.83922921       2.07796257  T        0
O       16.07637218      19.05195849       9.14868206  T        0
O        4.32610065      11.41288249       3.70152511  T        0
O       15.14627250       8.85869621       9.64493288  T        0
O       15.09554794      10.99217377       2.71477608  T        0
O       14.02713942      17.15385500      12.14908284  T        0
O       16.22969179       7.33918968       5.17669818  T        0
O       13.85988093      12.25072908      11.96352660  T        0
O        5.82901116      10.93152651       6.67487569  T        0
O        5.86864150      19.27791219       7.41670270  T        0
O       14.15421635       8.95052397       5.69744679  T        0
O       16.25872975      11.38312065      12.44673256  T        0
O        5.16538200       9.52377096       2.05880895  T        0
O       16.41654059       9.94940256       4.79673033  T        0
O       14.23287822       9.59539116      12.03472435  T        0
O        7.68998213      12.47310131       7.93005902  T        0
O        7.65657382      17.28520560       7.94577174  T        0
O       12.04094707       7.33851670       5.47030384  T        0
O        8.23903939      11.10465757       5.72773295  T        0
O        8.22854581      19.09485417       6.04936879  T        0
O       12.24099232       8.89026314       7.53691488  T        0
O        7.01736181      11.14021475       3.16570668  T        0
O        7.25221663      18.16999349       3.79882647  T        0
O       12.52189989       8.77903914      10.14324556  T        0
O       17.66956551      11.61905335       3.12355513  T        0
O        8.35103317       8.65056787       4.00844212  T        0
O       11.39913510      10.90591979       8.96368079  T        0
O       11.60515957      19.05639772       9.78196525  T        0
O        5.25980217      12.04244720       1.27928421  T        0
O       16.25571649      17.59600734       4.97507918  T        0
O       14.10119221       7.02738646      11.34292926  T        0
O       15.85712979      12.57772433       4.72937712  T        0
O        9.98493992      16.91896845       9.29420258  T        0
O        9.66770611      12.76707621       9.72387888  T        0
O       10.13258132       6.64973924       3.72679773  T        0
O        7.67420566      16.65736175      10.61019403  T        0
O        7.13298407      13.48010427      10.37645811  T        0
O       17.50890681      13.47303533       9.58913850  T        0
O       12.66749052       6.53968965       3.01855631  T        0
O       17.82088388      17.15140978       9.85987979  T        0
O        8.51338402      14.90872307       8.65446150  T        0
O       11.77945671       4.84267037       4.93296715  T        0
O       16.35379564      12.87634574       7.33494827  T        0
O       13.62178535       6.55165574       0.64253188  T        0
O       16.51193506      16.95269812       7.48097761  T        0
O       14.89457427      12.75202047       9.55380244  T        0
O       15.32390858       6.86550651       2.71110341  T        0
O       15.14242454      16.69949506       9.71322760  T        0
O       15.92330706      15.00016852       5.74952768  T        0
O        6.01184484       6.73661175       6.50362556  T        0
O       13.92570722      13.31523069       6.39974458  T        0
O       14.07744623      16.78179903       6.38043961  T        0
O        7.64682567       4.72871235       7.46225496  T        0
O       11.81461841      15.29833161       6.20434138  T        0
O        8.51082540       6.67486715       5.78831477  T        0
O       11.16393383      13.23242194       7.61725828  T        0
O       11.83397717      17.58939184       7.54902800  T        0
O        7.60972404       6.15485973       3.27895947  T        0
O       12.29407578      13.14381009      10.03229481  T        0
O       17.89714519       6.35091411       3.25330199  T        0
O       12.50260235      16.57826903       9.96803267  T        0
O       16.02570887       4.85650475       4.43352015  T        0
O       14.03615070      14.75947775      11.12935368  T        0
Si       8.42633964       8.60477307       9.01478069  T        0
Si      11.49424491      18.85715478       4.01803848  T        0
Si      11.45782592      11.16853638       4.09952895  T        0
Si      16.50205029       9.30459173       8.85147712  T        0
Si      13.72641333      10.46582167       2.00596764  T        0
Si      15.77476318       8.79424423       5.75129461  T        0
Si      14.66478819      11.03171209      12.68098781  T        0
Si       7.40344888      11.06246444       7.12710646  T        0
Si       7.45787942      18.85353386       7.46323244  T        0
Si      12.56198511       8.78560611       5.95803550  T        0
Al       8.27959099      10.35409616       4.05966933  T        0
Si       8.34305578      19.22549997       4.41007347  T        0
Si      11.54393325       9.28679085       8.94087012  T        0
Si       5.49859653      11.06289605       2.59019634  T        0
Si      14.01432733       8.57054291      10.78110447  T        0
Si      16.23991174      11.27044296       3.85170539  T        0
Si       8.41848656      16.51417103       9.16690433  T        0
Si       8.24351357      13.34334143       9.18504081  T        0
Si      11.63525010       6.33140324       4.26209136  T        0
Si      16.37838861      12.48386956       8.91297382  T        0
Si      13.83726252       7.21524392       2.12927925  T        0
Si      16.42371367      17.44236525       9.04270990  T        0
Si      15.49649631      13.44468428       6.06365533  T        0
Si      15.68364322      16.56963213       6.12715325  T        0
Si       7.52346999       6.31517860       7.02609291  T        0
Al      12.25373473      13.54639971       6.22155272  T        0
Si      12.46688390      16.80225718       6.25653209  T        0
Si       8.62193045       7.07909591       4.19557192  T        0
Si      11.15890488      12.49442352       9.08261134  T        0
Si      11.49474823      17.54930258       9.15255865  T        0
Si      13.79704546      13.22470775      10.65914333  T        0
Si      16.36683859       6.35877116       3.87252708  T        0
Si      13.93603145      16.33316196      10.73400198  T        0
O        8.22215314      19.65749908       8.67941216  T        0
O        7.99870718      20.76464898       3.92926759  T        0
O       14.34797653      10.97285756      14.29321138  T        0
H        7.07153747       8.87866318      10.98534327  F        0
H       13.03074803      18.74401529       2.26762503  F        0
H       18.28958667       8.42947104      10.15436836  F        0
H       12.34310542      20.30287261       5.56688324  F        0
H       14.08297195      10.81847671      -0.34490677  F        0
H       16.64304187      19.77694965       8.84122497  F        0
H        4.05829635      10.79936776       4.41071281  F        0
H       14.40563884      18.04556895      12.19637069  F        0
H        5.06295559      10.84500939       7.26028495  F        0
H        5.06295559      18.75104696       7.26028496  F        0
H       16.97340651      10.80641058      12.75613404  F        0
H        5.72719027       9.20254625       1.33756862  F        0
H        6.55301950      18.28668004       3.13509397  F        0
H       18.17502404      10.93300163       2.66186473  F        0
H       11.52310955      19.83515307       9.21116341  F        0
H        5.53537813      12.95496052       1.09262639  F        0
H       15.87290964      17.87210703       4.12309272  F        0
H       14.56690736       6.77574372      12.16034191  F        0
H        6.74596320      16.92620537      10.74076342  F        0
H        6.74596321      12.66985099      10.74076342  F        0
H       18.05303808      13.25020103      10.35989921  F        0
H       18.05303809      16.34585533      10.35989921  F        0
H       11.61525895       4.01919395       4.45233654  F        0
H       14.23421140       6.74908840      -0.07819396  F        0
H        5.18772305       6.48136951       6.94399129  F        0
H        7.92514400       4.01763560       6.85279547  F        0
H        6.78202892       6.52695113       2.93525138  F        0
H       18.37141860       7.12308619       2.89672377  F        0
H       16.04230867       4.00312851       3.96597142  F        0
H        8.32625906      20.60985804       8.81306681  F        0
H        8.66651872      21.47399316       3.93953912  F        0
H       13.51650676      10.58100877      14.61047976  F        0
Fe       9.30594248      12.78644501       4.93524372  T        0
Fe       9.85133630      14.89512485       6.92427044  T        1
O        8.87535702      14.48659538       5.43867605  T        2
