136
Lattice="19.123 0.0 0.0 0.0 14.277 0.0 0.0 0.0 7.5465" Properties=species:S:1:pos:R:3:move_mask:L:1:tags:I:1 i=128 E=-2603.9155142701 regions="_JSON [\"Active\"]" n_terminators=32 energy=-911.9596726472294 pbc="F F F"
O        6.14736245       1.13682042       1.54371585  T        0
O       15.77230182       8.51462750       5.89233440  T        0
O       12.87346862       1.25679166       1.97376364  T        0
O        3.50402591       8.47674678       5.85471527  T        0
O        6.13591410      13.13916743       1.53640799  T        0
O       15.74537223       5.82287302       5.87456199  T        0
O       12.97104150      13.15524778       1.52424812  T        0
O        3.49717339       5.78711548       5.86492141  T        0
O       13.00181906      13.12867103       5.99899996  T        0
O        3.45091069       5.78962426       1.66136550  T        0
O        6.20765947      13.12059567       5.91403194  T        0
O       15.70630789       5.79797792       1.74852583  T        0
O       13.08282393       1.14539424       6.06519812  T        0
O        3.45429092       8.48116973       1.68947757  T        0
O        6.25667123       1.16727270       5.82387684  T        0
O       15.45050621       8.47035664       1.76515655  T        0
O        7.25488984       3.46139006       2.46004018  T        0
O       17.14600695      10.83895322       6.09103219  T        0
O       11.96211477       3.75001555       2.30599807  T        0
O        1.98561073      10.71051993       6.14206480  T        0
O        7.22785838      10.80960577       2.46114468  T        0
O       17.19058443       3.54195719       6.13593205  T        0
O       11.91658331      10.80521490       2.45420979  T        0
O        2.00293260       3.52681784       6.09899919  T        0
O       11.89307060      10.79884010       5.08667762  T        0
O        1.99844127       3.50642375       1.43645870  T        0
O        7.23221465      10.73232461       5.09502953  T        0
O       17.21630654       3.58117573       1.41621879  T        0
O       11.98454565       3.40528140       4.98704533  T        0
O        1.97936325      10.74694041       1.43300827  T        0
O        7.27395777       3.56234615       5.09706347  T        0
O       17.12573091      10.52383852       1.29818965  T        0
O        6.69422266       3.21471374      -0.05048220  T        0
O       16.11562362      10.11403356       3.75737590  T        0
O       12.79242139       3.09291433      -0.10199516  T        0
O        3.05248091      10.11990991       3.78089907  T        0
O        6.67728175      11.05112556      -0.04462264  T        0
O       16.18572250       4.17410621       3.80469287  T        0
O       12.49824219      11.00584755      -0.04331845  T        0
O        3.08097839       4.16186446       3.76908846  T        0
O        4.66779334       3.38556782       1.77136565  T        0
O       14.47723001      10.87731369       5.72461067  T        0
O       14.57155521       3.36600329       1.84716432  T        0
O        4.64340306      10.92213642       5.77720322  T        0
O        4.64289475      10.90084931       1.77967557  T        0
O       14.51961006       3.42613325       5.75448718  T        0
O       14.50950599      10.97881060       1.79554841  T        0
O        4.67319395       3.36148071       5.76858972  T        0
O       11.28361307       8.50884037       3.73969687  T        0
O        7.89766562       8.47985069       3.71229017  T        0
O       11.28802080       5.78789430       3.79650376  T        0
O        7.93508627       5.80331082       3.70747140  T        0
O        9.56880045      10.51537083       3.75341196  T        0
O        9.60680010       3.73526308       3.74622124  T        0
O       13.59574538       7.20859939       5.08971808  T        0
O        5.74549791       7.12080564       5.20722304  T        0
O        5.67497599       7.12372005       2.37641682  T        0
O       13.29263287       6.85765103       2.26491876  T        0
O       14.12617685       6.94243989      -0.10804089  T        0
O        5.00940972       7.15444755      -0.10175997  T        0
Si       6.15277482       2.79118055       1.44322727  T        0
Si      15.86474949      10.07435164       5.38806596  T        0
Si      13.08980383       2.80953384       1.48934752  T        0
Si       3.30585051      10.04096969       5.40380816  T        0
Si       6.13081736      11.48441411       1.44498903  T        0
Si      15.89374544       4.25644186       5.42143169  T        0
Si      12.99573279      11.50438335       1.44447941  T        0
Si       3.32421276       4.22593418       5.39255636  T        0
Si      12.99945999      11.47592000       6.09167228  T        0
Si       3.30815690       4.22829701       2.14312205  T        0
Si       6.15045705      11.47239335       6.08719422  T        0
Si      15.92582113       4.22813801       2.20038905  T        0
Si      13.05374040       2.79481109       6.09598449  T        0
Si       3.29150769      10.04459967       2.15531868  T        0
Si       6.18121214       2.80543867       6.06865287  T        0
Si      15.80099190      10.04495794       2.15233082  T        0
Si      11.17065966      10.17228158       3.76588929  T        0
Si       7.96285327      10.14740165       3.75741016  T        0
Si      11.18317755       4.13016858       3.77615675  T        0
Si       7.99116548       4.14034720       3.74587602  T        0
Si      14.83308598       7.17781781       6.12083483  T        0
Si       4.43073425       7.13059750       6.12567150  T        0
Si       4.38577557       7.13678771       1.42507357  T        0
Si      14.71674942       7.06091970       1.44156106  T        0
Al      12.45414736       7.17116650       3.84445084  T        0
Al       6.66712885       7.12336327       3.76929161  T        0
O        6.70784840       3.16790322       7.58713096  T        0
O       12.50045324       3.25195340       7.57626986  T        0
O        6.68700473      11.07393075       7.59138985  T        0
O       12.48218894      11.03004541       7.58639003  T        0
O       14.15725117       7.16533933       7.62175121  T        0
O        5.02983429       7.13401029       7.66222512  T        0
O       12.85479041       1.24157224      -2.07593074  T        0
O       11.73480003       3.75018996      -5.31216119  T        0
O       12.03110519       3.70830311      -2.59721964  T        0
O       14.68728248       3.14712867      -2.05807938  T        0
O       11.35239262       6.01391852      -3.82883977  T        0
O        9.56942031       3.99767456      -3.70516339  T        0
Si      13.09333949       2.82901202      -1.72331000  T        0
Si      11.17347942       4.36045234      -3.87266766  T        0
H        5.61083456       0.52083913       2.07985367  F        0
H       13.50938118       0.51971906       2.07492992  F        0
H        5.61112307      13.75835362       2.07975607  F        0
H       13.50958039      13.75682243       2.07498241  F        0
H       13.51084140      13.75504172       5.44776650  F        0
H        5.62495998      13.75277707       5.44935724  F        0
H       13.50975252       0.52161770       5.44778410  F        0
H        5.62509051       0.52255101       5.44942550  F        0
H       17.28974254      11.12548174       7.01862795  F        0
H        1.83343022      11.12554006       7.01950242  F        0
H       17.28979000       3.14560285       7.02339196  F        0
H        1.81954193       3.15353441       6.98813474  F        0
H        1.83183800       3.14857954       0.53722786  F        0
H       17.29134854       3.14797220       0.53999843  F        0
H        1.83154049      11.12909684       0.54034962  F        0
H       17.29120144      11.12876736       0.54010345  F        0
H        6.35952436       2.97904956      -0.93427223  F        0
H        6.36236324      11.29726414      -0.93275871  F        0
H       12.76174962      11.29928001      -0.93393629  F        0
H       14.60982961       7.13673871      -0.92783774  F        0
H        4.51175007       7.13509558      -0.92932085  F        0
H        6.35949513       2.97597070       8.47938261  F        0
H       12.76321398       2.97604733       8.47995589  F        0
H        6.35946036      11.30224636       8.48133548  F        0
H       12.76333233      11.30075111       8.47967776  F        0
H       14.61405599       7.13800201       8.47661577  F        0
H        4.50898861       7.14016697       8.47499567  F        0
H       13.50975252       0.52161770      -2.09871590  F        0
H       12.44565577       3.15588527      -5.64616185  F        0
H       15.19955093       3.97637223      -2.09238403  F        0
H       12.12599848       6.62134464      -3.78390305  F        0
H        8.59637561       4.20354031      -3.78445885  F        0
Fe      11.75036880       5.81200752       1.32956548  T        0
Fe       9.50064700       7.20268907       3.23124490  T        1
O        9.89770419       5.71976445       0.90671777  T        2
O       10.17651268       7.09847399       1.33009814  T        3
