135
Lattice="19.123 0.0 0.0 0.0 14.277 0.0 0.0 0.0 7.5465" Properties=species:S:1:pos:R:3:move_mask:L:1:tags:I:1 i=128 E=-2603.9155142701 regions="_JSON [\"Active\"]" n_terminators=30 energy=-917.2355598093828 pbc="F F F"
O       15.96526783       8.44208200       5.57173631  T        0
O       12.93117219       1.36044550       1.54706929  T        0
O       15.53996570       5.92417348       5.80180523  T        0
O       15.69748482       5.87061268       1.76735565  T        0
O       12.91191653       1.13069716       5.62062275  T        0
O       15.87671834       8.50478442       1.66239829  T        0
O       11.72876673       3.61803151       2.40579268  T        0
O       17.14226185       3.44532690       6.12669985  T        0
O       16.92740652       3.53870689       1.14004452  T        0
O       11.63319730       3.43804246       5.08162138  T        0
O       12.59506261       3.47804012      -0.11210506  T        0
O       16.33002448       4.04041621       3.66041403  T        0
O       14.35658042       3.56570479       1.91776455  T        0
O       14.27960631       3.36544976       5.59546758  T        0
O       11.35246766       8.40103760       3.67730765  T        0
O       17.01735449       1.31301948      -0.34830600  T        0
O       11.82109464       5.82757102       3.87680081  T        0
O        9.52061318       4.54790283       3.72112967  T        0
O       13.44462338       7.52885777       5.17069391  T        0
O       15.43380910      -0.09013481       1.26714282  T        0
O       15.33965522       0.02799975       6.16763615  T        0
O       13.55843086       7.34255687       2.50464867  T        0
O       14.18644749       7.19364913      -0.04758318  T        0
O       14.43848724      -0.02074435       3.69282340  T        0
Si      12.88885847       2.97205062       1.44280067  T        0
Al      15.69643452       4.29488664       5.36178073  T        0
Si      15.80496952       4.27426271       2.09293322  T        0
Si      12.84142774       2.75149974       5.96562780  T        0
Si      17.57920615       2.86309658      -0.21682259  T        0
Si      11.14946249       4.33140789       3.77590934  T        0
Si      14.83044743       7.33837415       6.04339840  T        0
Al      13.75047478      -0.08591360       1.99313584  T        0
Si      13.95274915      -0.07178365       5.28947467  T        0
Si      14.82487267       7.24471470       1.47764572  T        0
Si      12.55557946       7.28357376       3.81164149  T        0
Si      16.22010125      -0.11039809      -0.19871847  T        0
O       21.71818248       3.18781556       8.91143643  T        0
O       21.30322752       1.29049485       7.08486659  T        0
O       19.24568056       2.95034055       7.73244054  T        0
Si      20.88887320       2.83125063       7.52228623  T        0
O       21.20101743       3.85028627       6.24577585  T        0
O       21.24278819       3.88423245       1.24847156  T        0
O       21.35132192       1.31006753       0.46648321  T        0
O       19.22046870       2.88562691      -0.14028529  T        0
Si      20.87683468       2.83032217       0.01694704  T        0
O       21.61881133       3.19107243      -1.42160947  T        0
O       19.18711420      -3.17808254       7.86112794  T        0
O       19.18019251      -3.28638892       0.12780067  T        0
O       12.97476759       1.23010045       9.59016003  T        0
O       15.49799852       5.88087114       9.54478328  T        0
O       15.63367517       8.45848290       9.91933628  T        0
O       11.54710460       3.49998370       9.93817920  T        0
O       16.82942751       3.67103431       8.79326701  T        0
O       12.53070558       2.92154734       7.57291970  T        0
O       16.26022353       3.98175806      11.34506350  T        0
O       14.25311265       3.54695157       9.56118645  T        0
O       17.17880780       1.25439091       7.64884167  T        0
O       15.20364276      -0.08067808       8.85010552  T        0
O       13.16088071       7.23733483       9.84315098  T        0
O       14.46613996       7.53325498       7.63598797  T        0
O       14.54995851      -0.06071311      11.38812223  T        0
Si      12.83729129       2.81762489       9.17684006  T        0
Si      15.68873628       4.28085862       9.82546230  T        0
Si      17.60547841       2.83684903       7.61753642  T        0
Si      13.91747368      -0.07959277       9.86496894  T        0
Si      14.69704363       7.28237077       9.23054140  T        0
Si      16.20854628      -0.06355817       7.56783310  T        0
O       17.13640274       3.72268408      -1.56078604  T        0
O       15.16825261      -0.45800511      -1.42434295  T        0
O       13.03012288      -1.43193267       9.60050186  T        0
O       15.71004490      -6.04481702       9.81598911  T        0
O       11.54168587      -3.68269317       9.85700094  T        0
O       16.79599998      -3.74263827       8.81346413  T        0
O       16.27732620      -3.93993133      11.36612567  T        0
O       12.61436168      -3.12306608       7.55446908  T        0
O       14.23093471      -3.81965684       9.57430163  T        0
O       17.13688619      -1.40577750       7.54173834  T        0
Si      12.87536795      -3.00699805       9.16726360  T        0
Si      15.73522158      -4.39298596       9.87791606  T        0
Si      17.57534483      -2.99457525       7.58222485  T        0
O       15.94435224      -6.04996611       5.67995076  T        0
O       12.94341256      -1.56007822       1.65966880  T        0
O       13.20201596      -1.48645077       5.54542864  T        0
O       15.91354003      -5.98538024       1.72819656  T        0
O       17.10431003      -3.69053634       6.15967666  T        0
O       11.62689193      -3.81486715       2.34846019  T        0
O       11.91824771      -3.75400970       5.02517102  T        0
O       16.79093248      -3.53818699       1.22896841  T        0
O       16.12833214      -4.17061227       3.73025383  T        0
O       12.50988964      -3.51737006      -0.15654968  T        0
O       14.45570483      -3.82584971       5.79571792  T        0
O       14.21530745      -3.90261668       1.89950861  T        0
O       11.30420405      -6.09003422       3.79961321  T        0
O       17.28255434      -1.35225280      -0.19642171  T        0
O        9.51996707      -4.09115719       4.07773754  T        0
Si      15.89626985      -4.43355891       5.33433016  T        0
Si      12.82512126      -3.15150713       1.43258816  T        0
Si      13.03144590      -3.05191259       5.97727258  T        0
Si      15.74416510      -4.39924220       2.14566300  T        0
Si      11.09619838      -4.44199097       3.77566174  T        0
Si      17.58233336      -2.97926867      -0.09937440  T        0
O       17.11565733      -3.75191132      -1.48505116  T        0
H       15.75671561       9.37610020       5.45468838  F        0
H       15.75699573       9.38061947       2.07980242  F        0
H       12.76076393       2.97683097      -0.93375646  F        0
H       11.31595404       9.37380971       3.76235534  F        0
H        8.59637561       4.20354031       3.76204115  F        0
H       14.60982961       7.13673871      -0.92783774  F        0
H       22.00636260       3.98381786       9.40800429  F        0
H       21.68544240       0.51556882       7.54734209  F        0
H       21.98145514       3.97853683       5.66306621  F        0
H       22.00636260       3.98381786       1.86150429  F        0
H       21.68544240       0.51556882       0.00084209  F        0
H       21.98145514       3.97853683      -1.88343379  F        0
H       20.08739461      -2.93488337       7.54749186  F        0
H       20.08739461      -2.93488337       0.00099186  F        0
H       15.75699573       9.38061947       9.62630242  F        0
H       11.39369377       3.98884644      10.77146895  F        0
H       15.92754156       4.15729643      12.25107281  F        0
H       12.88235039       7.13795337      10.76981689  F        0
H       14.07270598       0.00010018      12.23669175  F        0
H       16.23925818       3.97887666      -1.85852020  F        0
H       14.44051635       0.00152190      -1.88177140  F        0
H       15.17712900      -6.61799919       9.23343573  F        0
H       11.39439525      -3.98966818      10.77116771  F        0
H       15.92688062      -4.16242016      12.25007275  F        0
H       15.17320598      -6.62175386       5.84596239  F        0
H       15.17712900      -6.61799919       1.68693573  F        0
H       12.76174962      -2.97771999      -0.93393629  F        0
H       12.12595522      -6.62290057       3.76264176  F        0
H        8.59739021      -4.20337067       3.76217937  F        0
H       16.24044124      -3.98714965      -1.86101282  F        0
Fe      17.64902393       2.59760644       4.35047782  T        0
Fe      16.37744222       0.16657485       3.07015612  T        1
O       17.91950470       0.94998616       3.62693772  T        2
