142
Lattice="20.102 0.0 0.0 0.0 19.731 0.0 0.0 0.0 13.253" Properties=species:S:1:pos:R:3:move_mask:L:1:tags:I:1 i=77 E=-3472.0240129048 regions="_JSON [\"Active\"]" n_terminators=34 energy=-958.3972763970166 pbc="F F F"
O       10.14848083       1.04404818       9.67740396  T        0
O       -0.09126922       8.49802507      10.99952676  T        0
O       -0.17713832       1.35906006      11.03162168  T        0
O        7.63933853       1.42055355      10.47106804  T        0
O        8.54395271       2.71281000       8.29905406  T        0
O        8.72389720       7.13170170       8.37658832  T        0
O        8.08656181       0.10556718       8.18347371  T        0
O        6.26333865       0.77234973      12.75715044  T        0
O        3.76264766       9.20399160       3.82141284  T        0
O        3.68848404       0.99158247       4.32593795  T        0
O        4.98863300       0.85516930      10.45621129  T        0
O        5.02906144       8.79127803      10.99289148  T        0
O        5.70286093       2.57903795       1.35624408  T        0
O        6.36646628       7.49141579       1.22360546  T        0
O        3.81606082       0.96115139       0.39840814  T        0
O        6.06599083      -0.08662168       1.28133910  T        0
O        4.34046607      10.35395565       8.92255284  T        0
O        1.89307748       2.57175221       1.25426619  T        0
O        2.66426862       7.52844640       1.39163853  T        0
O        1.83631977       0.54101712      12.64625475  T        0
O        1.68298202       9.59924004      12.74699711  T        0
O        2.35553775       1.04318439      10.10536442  T        0
O        2.52086776       8.83147279      10.27735700  T        0
O        8.41438263       9.10720676       3.63775804  T        0
O        0.75334493      10.88110728      10.62258040  T        0
O        9.17855405       0.87870765       3.96922413  T        0
O        3.95232575       2.69990866       8.76455950  T        0
O        4.26852257       7.65826493       8.63870445  T        0
O        0.17356726       7.56613788       2.99015830  T        0
O        0.07471046       2.79317762       3.21111381  T        0
O       10.18027998       3.38832840       3.79276065  T        0
O       10.49278975       7.44818393       3.88606213  T        0
O        2.76613668       6.61271217       4.06564956  T        0
O        2.56445459       3.40197622       3.71491679  T        0
O        1.27236241       5.03164079       2.16357995  T        0
O        4.16217398       7.70113979       5.99788035  T        0
O        3.60471278       3.21294965       5.93431191  T        0
O        5.37591818       7.08119513       3.71121266  T        0
O        5.22307486       3.13132224       3.88211845  T        0
O        4.06020065       5.37078620       7.19110508  T        0
O        6.35391994       6.78881768       7.22058273  T        0
O        6.22666304       3.40844465       7.14776597  T        0
O        8.35093474       4.99220029       6.92441604  T        0
O        8.49099805       7.36395234       5.71762392  T        0
O        8.32621566       2.69046482       5.66375425  T        0
O        7.96462297       6.62264501       3.21311678  T        0
O        7.72817477       2.95954786       3.07123441  T        0
O        6.16762045       5.00533124       2.24883059  T        0
Si       8.61326401       1.31384798       9.14474497  T        0
Si       6.43302654       0.53337596      11.14414334  T        0
Si       5.41960359       1.20586744       0.53618700  T        0
Si       2.21076534       1.19000687       0.46506143  T        0
Si       1.21465377       0.49358019      11.13118357  T        0
Si       1.25408291       9.41091277      11.16502330  T        0
Si       3.81022994       1.20876632       9.36789149  T        0
Si       4.04242683       8.90995527       9.67781771  T        0
Al       1.61897912       6.71348038       2.52994120  T        0
Si       1.40263317       3.48547247       2.50966921  T        0
Si       4.02137224       7.68307837       4.35700046  T        0
Si       3.80540864       2.57789643       4.43226467  T        0
Si       4.74013989       6.87387536       7.29443989  T        0
Al       4.55032527       3.60749191       7.42312654  T        0
Si       7.97013233       6.56036726       7.03318028  T        0
Si       7.82483956       3.44212249       7.02254643  T        0
Si       8.87746541       7.61403395       4.14378176  T        0
Si       8.85742999       2.47276176       4.14777732  T        0
Si       6.45751386       6.58135911       2.57713489  T        0
Si       6.23943647       3.43044506       2.62746253  T        0
O        6.01678426       2.58594818      14.60029397  T        0
O        3.99260860       0.79377704      14.19390625  T        0
O        6.28929940       0.01249736      15.36429501  T        0
O        1.88755394       2.53880738      14.30300408  T        0
Si       5.61526142       1.02790609      14.24251961  T        0
Si       2.36606152       0.97715969      14.11831214  T        0
O        6.06425681       1.42012472      -0.95314752  T        0
O        1.52825726       1.39425697      -1.01315329  T        0
O        1.65774711       0.08505828      15.31963716  T        0
O       10.00646533      -1.67225055       3.97607086  T        0
O        2.21695863      -1.06542576       3.65882539  T        0
O        2.21507820      -2.70989799       1.69923695  T        0
O        1.54731129      -0.10000349       1.21804836  T        0
O        3.77773448      -1.18465974       5.84110845  T        0
O        6.96453169      -0.99978289      10.81839217  T        0
O        4.89218836      -1.18438756       3.41657774  T        0
O        3.73396397      -2.59560562       8.02538744  T        0
O        6.01435298      -1.30510085       7.31749843  T        0
O        3.90569392       0.10095086       8.15456183  T        0
O        8.36836171      -2.56221820       7.67454201  T        0
O        8.12648953      -0.84160779       5.73903683  T        0
O        7.56197915      -1.11317007       3.19591608  T        0
O        0.75018887      -1.04895798      10.79133155  T        0
O        6.24088754      -2.74471905       1.66321373  T        0
Si       1.43258192      -1.36524755       2.24813193  T        0
Si       3.65112734      -0.64845144       4.31532131  T        0
Si       4.38827870      -1.23323929       7.35982375  T        0
Si       7.64089729      -1.14704481       7.25665437  T        0
Si       8.72961098      -0.67538228       4.23938867  T        0
Si       6.16694304      -1.27843330       2.39629964  T        0
O       -2.15135772       8.68350556       9.37995298  T        0
O       -2.29855963       1.51784028       9.35740976  T        0
O       -2.23274036       6.96266959      11.47490564  T        0
O       -2.52494835       2.34926049      11.95590552  T        0
O       -2.46651085       9.49720832      12.02592315  T        0
O       -2.41439549      -0.21975994      11.29992550  T        0
Si      -1.74171950       8.45856393      10.96188265  T        0
Si      -1.82340125       1.27203247      10.92070205  T        0
O       -0.16848478      -1.66292462       2.51179833  T        0
H       10.95532306       1.01526715       9.12727255  F        0
H        8.32487050       7.90186745       8.80281456  F        0
H        3.45925242       9.91158019       4.41179507  F        0
H        5.99284640       8.93133648      11.03719697  F        0
H        5.69664665       8.18021685       1.05659762  F        0
H        4.32395249      10.52815797       7.96405277  F        0
H        2.35337064       8.25291401       0.82192755  F        0
H        2.15673527       8.97653516      13.32343298  F        0
H        8.57917776       9.96978004       4.04186183  F        0
H        1.38462403      11.60834528      10.56602327  F        0
H       -0.70903753       7.30425969       2.68512250  F        0
H       -0.70903753       2.56109242       2.68512249  F        0
H       11.09748793       3.17088023       4.02620164  F        0
H       11.09748793       6.69447189       4.02620164  F        0
H        6.01932000       3.06180763      15.45091456  F        0
H        5.93863966      -0.78453132      15.80837942  F        0
H        1.83990596       3.03992679      15.13110092  F        0
H        6.58577873       0.71565665      -1.35751145  F        0
H        1.54448592       0.71940466      -1.70877227  F        0
H        1.72488369      -0.87915380      15.43958266  F        0
H       10.94686465      -1.43592210       4.04088346  F        0
H        2.20758188      -3.14188650       0.83020009  F        0
H        6.45001594      -1.80559776      10.93294989  F        0
H        4.03182274      -3.06210338       8.82439872  F        0
H        8.21123678      -3.04022255       8.50458507  F        0
H        1.38462403      -1.74328892      10.56602328  F        0
H        5.53537813      -3.08990416       1.09262638  F        0
H       -2.97931979       8.87866318       8.89410917  F        0
H       -2.97931980       0.98668894       8.89410918  F        0
H       -2.20729638       6.72376138      12.42276821  F        0
H       -2.20729639       3.14159074      12.42276822  F        0
H       -2.29171223      10.43742178      12.19344802  F        0
H       -2.29167719      -0.57216837      12.19336740  F        0
H       -0.90389483      -1.01556292       2.50078841  F        0
Fe       3.00767690       5.06660559       5.30431925  T        1
