138
Lattice="24.397 0.0 0.0 0.0 24.397 0.0 0.0 0.0 24.397" Properties=species:S:1:pos:R:3:move_mask:L:1:tags:I:1 i=41 E=-6943.8331748197 regions="_JSON [\"Active\"]" n_terminators=30 energy=-941.8033594241925 pbc="F F F"
O        9.47800462      14.59359436      -0.17535611  T        0
O       14.92351025      20.84253095       6.31121290  T        0
O        9.65727656      18.35470600       3.60472691  T        0
O       18.50880056      20.71226918       2.59847805  T        0
O        9.70584134      12.00035146       2.58188827  T        0
O        5.81037499      21.72016618       3.63200382  T        0
O        9.74214729      15.63886450       6.33902234  T        0
O       12.10480784      20.83143915       3.47173148  T        0
O       15.79073038      20.89055404      -0.02375209  T        0
O       11.42035612      13.90820673       1.94473259  T        0
O       12.85806916      20.14578685       7.98788233  T        0
O       10.35508067      17.69217994       8.02694214  T        0
O       10.33675136      20.18586805       5.39814889  T        0
O        7.79298582      22.72986582       5.14499674  T        0
O       16.49217282      19.13399095       1.90766096  T        0
O       10.35869724      10.24998954       0.58233159  T        0
O       11.27903102      16.33337743       4.33181958  T        0
O       14.21524797      18.94378287       4.61738818  T        0
O       20.24229179      20.14571261       0.58718491  T        0
O       12.14529497      11.99502343       3.76917782  T        0
O       12.40593876      21.74149865       5.97881340  T        0
O        8.71605577      18.15579875       6.08985262  T        0
O        6.14453606      20.86957532       6.21989042  T        0
O       18.32270763      18.20111443       3.66070588  T        0
O        8.66354642      12.07121863       0.04213505  T        0
O       12.24920953      14.59405128       6.17110850  T        0
O       12.19283524      18.15046034       2.65591417  T        0
O       16.07300318      18.40456050       6.47949003  T        0
O       18.29189707      21.80550184       0.12756110  T        0
O       10.40407580      16.61056615       1.72778154  T        0
O       14.10064851      22.64001838       7.91957909  T        0
O        7.85216891      20.13085597       4.44128774  T        0
O       10.38885037      22.66585366       4.39159954  T        0
O       16.66232208      20.03125217       4.44396839  T        0
O       10.42871709      13.81252132       4.44837759  T        0
O        7.91480229      16.36361996       7.98424068  T        0
O       14.01262189      20.07079463       1.81456663  T        0
O       20.18584917      22.56923183       1.92908197  T        0
O        7.94242698      10.26961321       1.95342569  T        0
Al      10.76712241      15.08749534       0.86436254  T        0
Si      13.56568893      21.33461276       7.08217078  T        0
Si       9.12056086      19.20142535       4.90421170  T        0
Si       9.12346978      23.63311604       4.82502409  T        0
Si      17.51446956      19.53111945       3.14007792  T        0
Si      10.93964095      12.93211334       3.14172847  T        0
Si       6.88176850      21.39510474       4.84982160  T        0
Si       9.17823896      16.96471871       7.12428738  T        0
Si      11.30420255      21.37886621       4.83575653  T        0
Si      15.31171609      19.62862401       0.89667528  T        0
Si       9.16721192      11.14764665       1.29165047  T        0
Si      10.91902225      15.08637837       5.33960568  T        0
Al      13.24917104      19.40239247       3.30492589  T        0
Si      15.46435291      19.54849764       5.46053108  T        0
Si      10.83972529      17.32632495       3.13018004  T        0
Si      19.32432166      21.31618531       1.30426340  T        0
O        8.79144062      24.67872248       3.58748981  T        0
O        9.67627031      24.39176353       6.17286633  T        0
O       15.83435941      24.72349372      -3.41601413  T        0
O       18.40569118      24.36805918      -2.54443646  T        0
O       14.77941194      12.02823458      -2.39419684  T        0
O       15.85487884      21.72211331      -6.42950421  T        0
O        6.01235950      14.76500410      -3.47102729  T        0
O       15.79337160      18.34706992      -2.57636338  T        0
O       12.15418680      14.71273172      -2.55477283  T        0
O        8.83707203      14.77766984      -6.47673892  T        0
O       18.46953143      15.70160938      -2.43566917  T        0
O       14.02147545      14.03536706      -0.78335526  T        0
O       17.32979674      22.74307019      -4.43133224  T        0
O        7.91108517      13.17266559      -4.58538353  T        0
O       16.52836417      16.46960938      -0.79489865  T        0
O       12.79367465      10.26755660      -1.84141575  T        0
O       10.24651498      12.85810652      -2.02331732  T        0
O       17.59583418      20.17739987      -1.86570138  T        0
O       20.21368078      17.69792233      -1.82706213  T        0
O       12.11511061      15.85151948      -0.12776244  T        0
O       15.80295115      12.21702192       0.12359913  T        0
O       18.42583364      20.86863793      -6.05160125  T        0
O        5.98945633      11.99739485      -3.46121768  T        0
O        9.83539783      12.23542442      -6.26178116  T        0
O       18.33323664      14.63923472       0.06937075  T        0
O       14.83831141      18.37660607      -0.06021612  T        0
O       12.34154159      12.22433501      -3.51758152  T        0
O       18.29345547      18.18585435      -3.50241390  T        0
O       16.53258286      13.95572334      -1.69103954  T        0
O       14.12566646      10.30530491      -4.25979921  T        0
O       16.63144863      20.14359911      -4.35682638  T        0
O        7.67341496      13.52400912      -1.91074564  T        0
O       14.02241945      16.52857971      -1.78580989  T        0
O       10.48429458      13.94631874      -4.46166298  T        0
O       16.62251357      22.66531016      -1.82818377  T        0
O       20.18720983      16.37522644      -4.26342760  T        0
Si      15.26617694      13.03524069      -1.19647641  T        0
Si      17.04882944      21.39980722      -5.33061604  T        0
Si       6.88928372      13.37002491      -3.33080081  T        0
Si      15.31240902      17.42347369      -1.32029428  T        0
Si      13.08522615      15.25777948      -1.33227873  T        0
Si       9.24047061      13.53875699      -5.45330651  T        0
Si      17.03849618      23.63735072      -3.08770214  T        0
Si      17.48789818      15.20192752      -1.22158044  T        0
Si      11.29695372      13.42653874      -3.13527700  T        0
Si      17.09131169      21.39934795      -0.90294453  T        0
Si      19.30963592      16.99340695      -3.01698750  T        0
Si       9.02188248      13.28481801      -1.00182294  T        0
Si      13.50260243      11.18852864      -3.01532762  T        0
Si      17.09239492      19.21406586      -3.09101073  T        0
H        5.57209901      22.58475209       3.23920925  F        0
H       13.27046745      19.56837449       8.65412958  F        0
H       10.92750145      17.22544079       8.65411313  F        0
H       10.92752655       9.64346076       1.07209470  F        0
H       20.85246702      19.56839425       1.07212032  F        0
H       12.70105063      11.39908942       3.24464026  F        0
H        5.29989873      21.15211322       6.60185973  F        0
H       19.09683476      17.79487503       3.24462109  F        0
H       12.70105695      15.05290863       6.89848520  F        0
H       15.44301084      17.79487314       6.89846715  F        0
H       13.68673605      23.15239550       8.63276462  F        0
H        7.34350493      16.80917637       8.63275504  F        0
H       20.83112530      23.15241223       1.48839475  F        0
H        7.34352333       9.66479174       1.48837704  F        0
H        7.91116176      24.92409770       3.23921137  F        0
H        9.34383450      25.19630608       6.60185911  F        0
H       15.43756588      24.92408969      -4.28745700  F        0
H       18.80021526      25.19629522      -2.85480231  F        0
H       15.43758004      22.58476212      -6.62655944  F        0
H        5.57209393      15.05833723      -4.28746901  F        0
H        7.91114242      15.05832763      -6.62654864  F        0
H       13.27048028       9.64343273      -1.27111845  F        0
H       20.85247350      17.22542539      -1.27111836  F        0
H       15.44303658      11.39914474       0.50251735  F        0
H       18.80021053      21.15208141      -6.89875154  F        0
H        5.29990407      11.69569909      -2.85482259  F        0
H        9.34382502      11.69567665      -6.89874716  F        0
H       19.09678362      15.05286173       0.50248505  F        0
H       13.68673308       9.66480596      -4.85513656  F        0
H       20.83112308      16.80913882      -4.85512183  F        0
Fe      11.78397693      17.79868431       0.44600559  T        0
Fe      12.01703188      20.67915962       1.39498590  T        1
O       11.43794729      19.59388565       0.06898693  T        2
