139
Lattice="20.102 0.0 0.0 0.0 19.731 0.0 0.0 0.0 13.253" Properties=species:S:1:pos:R:3:move_mask:L:1:tags:I:1 i=77 E=-3472.0240129048 regions="_JSON [\"Active\"]" n_terminators=34 energy=-927.4897784323693 pbc="F F F"
O       10.02237907       8.47083117       9.39235373  T        0
O        9.87046795      18.79740245       3.93001652  T        0
O        9.96178608      11.11345081       4.12777980  T        0
O        2.07415863      11.27165408       4.03789318  T        0
O        7.40781501       8.29358541      10.28128942  T        0
O       12.10504925      18.56471903       2.52671495  T        0
O       12.12574982      10.88531724       2.62442721  T        0
O        8.06659328       7.28472380       8.00303465  T        0
O       11.92245943      17.51414127       5.02184879  T        0
O       11.90773099      12.56743570       4.78326902  T        0
O        8.16939829       9.97499916       8.28877198  T        0
O       12.10917545      20.17961954       4.63316386  T        0
O       12.22356132       9.97241781       5.18890280  T        0
O        3.46485282      10.57670026       6.18651018  T        0
O        3.00951779       8.81657648       4.16820378  T        0
O       17.02057891      10.66363839       9.14431986  T        0
O       17.07392934      18.96073385       9.14616511  T        0
O        4.75812636      10.87764336       3.86855904  T        0
O        4.95127474      18.51708878       4.14403666  T        0
O        3.84053927      12.44797449       7.99674655  T        0
O       14.35213266      17.08702520      12.05078727  T        0
O       14.50169620      12.51162683      12.04005223  T        0
O        5.82732196      10.70344439       7.32406946  T        0
O        5.83960155      19.27839455       7.53705105  T        0
O       14.25854874       8.85427562       6.56756291  T        0
O        3.74036356       9.91800757       8.84158047  T        0
O        5.40180500      10.11586534       1.33485908  T        0
O        7.53298362      12.56015169       8.12010234  T        0
O        7.85225923      17.54741166       7.98337961  T        0
O       12.49149736       7.36739560       5.12389035  T        0
O        8.05874212      11.19267360       5.89173450  T        0
O        7.89661088      18.89264310       5.72476991  T        0
O       11.83606646       8.51428084       7.43448347  T        0
O        7.26842498      10.98278200       3.12275479  T        0
O        7.31623826      18.39708494       3.14100824  T        0
O       12.57000336       8.46474534      10.06834328  T        0
O        8.47803010       8.63206559       4.39677210  T        0
O       11.43736105      10.67357624       8.88478549  T        0
O       11.71968038      19.02873909       8.68213947  T        0
O        5.40742195      12.65849246       2.01224000  T        0
O        5.34242614      16.93612066       2.00532726  T        0
O       16.11394371      17.01791031       4.52708500  T        0
O       16.16958895      12.57017884       4.51869420  T        0
O       10.03270171      17.00095424       9.45895998  T        0
O        9.89614963      13.20765585       9.19213956  T        0
O       10.24850039       6.72762470       3.71343472  T        0
O        7.70426573      17.05875828      10.65451375  T        0
O        7.53119724      13.24883257      10.68942940  T        0
O       17.82965883      13.15606770       9.41759993  T        0
O       12.64601167       6.40954335       2.64017870  T        0
O       17.83990240      16.44633632       9.41850675  T        0
O        8.26850315      15.09488020       8.85257004  T        0
O       11.93839636       4.87265984       4.78054914  T        0
O       16.55198565      12.53095002       7.20179436  T        0
O       16.59269906      17.09468086       7.21289301  T        0
O       15.15697321      12.63500285       9.44207665  T        0
O       15.18184504      17.05718901       9.46960632  T        0
O       15.88757934      14.82833444       5.93389545  T        0
O        5.97708283       6.66399874       6.41101156  T        0
O       14.12295889      12.85886909       6.22451500  T        0
O       14.14191942      16.89411304       6.38031130  T        0
O        7.59062363       4.69678949       7.47058686  T        0
O       12.55325791      14.96902979       5.58572090  T        0
O        8.40189338       6.25821236       5.52833876  T        0
O       11.74527688      13.21241934       7.38208935  T        0
O       11.68983481      16.59186913       7.50651394  T        0
O        7.75570059       6.48643427       2.90249014  T        0
O       12.61375270      12.96280895      10.12970715  T        0
O       12.62420640      16.80375264       9.99991650  T        0
O       14.36154003      14.83788714      10.75132270  T        0
Si       8.43277196       8.51863747       9.00468345  T        0
Si      11.49835437      18.76232074       4.04329033  T        0
Si      11.60487899      11.06180096       4.16590318  T        0
Si       3.35931553      10.38530802       4.55634816  T        0
Si       4.22365418      10.89577945       7.59572266  T        0
Si       7.39587259      11.08785233       7.39198272  T        0
Si       7.44386302      18.98740258       7.28161256  T        0
Si      12.69391963       8.66484489       6.07364972  T        0
Al       8.33025661      10.32261337       4.31043827  T        0
Si       8.29863220      19.20777492       4.16678903  T        0
Si      11.50271349       9.06664898       8.95625755  T        0
Si       5.74923037      11.14957029       2.58426816  T        0
Si       5.72989396      18.38669823       2.68780286  T        0
Si       8.43479730      16.70039066       9.23541450  T        0
Si       8.28874567      13.46509859       9.24650145  T        0
Si      11.79834321       6.34081056       4.05603674  T        0
Si      16.61131309      12.23069430       8.82166905  T        0
Si      16.65069490      17.39952284       8.82368129  T        0
Si      15.71022972      13.20069020       5.97603714  T        0
Si      15.69357182      16.45161286       6.01238323  T        0
Si       7.51002442       6.23778706       6.88408166  T        0
Si      12.61794635      13.39383917       6.01084036  T        0
Si      12.59173743      16.51527678       6.09293967  T        0
Si       8.70184289       7.06184769       4.13444193  T        0
Al      11.48306954      12.37910491       8.98357552  T        0
Si      11.54184640      17.41465485       8.96241582  T        0
Si      14.12998054      13.21418962      10.58825736  T        0
Si      14.13949158      16.43181015      10.55795199  T        0
O        8.33031722      20.22825444       7.91692396  T        0
O        5.32271226      19.53897077       1.57329286  T        0
O        8.01347094      20.78272479       3.77664475  T        0
H        1.81269882      11.30123319       3.09859993  F        0
H        7.07153747       8.87866318      10.98534327  F        0
H       13.03074803      18.74401529       2.26762503  F        0
H       13.03074804      10.85204106       2.26762503  F        0
H       12.34310542      20.30287261       5.56688324  F        0
H        3.60112680       8.06005012       4.30646574  F        0
H       16.64303307       9.81912404       8.84117322  F        0
H       16.64304187      19.77694965       8.84122497  F        0
H        4.05829635      18.79668859       4.41071282  F        0
H        4.03182275      12.92715973       8.82439874  F        0
H       14.40563884      18.04556895      12.19637069  F        0
H       14.40563885      11.55048737      12.19637067  F        0
H        5.06295559      18.75104696       7.26028496  F        0
H       15.03932990       8.88569483       5.99268334  F        0
H        4.11249823       9.08086468       9.18193973  F        0
H        5.72719027       9.20254625       1.33756862  F        0
H       13.54926599       8.42132791      10.11787432  F        0
H       11.52310955      19.83515307       9.21116341  F        0
H        5.53537813      12.95496052       1.09262639  F        0
H        5.53537813      16.64109584       1.09262638  F        0
H       15.87290964      17.87210703       4.12309272  F        0
H       15.87290964      11.72394929       4.12309273  F        0
H        6.74596320      16.92620537      10.74076342  F        0
H        6.74596321      12.66985099      10.74076342  F        0
H       18.05303808      13.25020103      10.35989921  F        0
H       13.35632228       7.06085325       2.51220488  F        0
H       18.05303809      16.34585533      10.35989921  F        0
H       11.61525895       4.01919395       4.45233654  F        0
H        5.18772305       6.48136951       6.94399129  F        0
H        7.92514400       4.01763560       6.85279547  F        0
H        6.78202892       6.52695113       2.93525138  F        0
H        8.32625906      20.60985804       8.81306681  F        0
H        5.72719026      20.39380587       1.33756863  F        0
H        8.66651872      21.47399316       3.93953912  F        0
Fe       9.37919873      12.75331449       5.22303355  T        0
Fe      10.17392340      14.66452980       7.48359096  T        1
O        9.83927094      14.74692731       5.44721410  T        2
O        8.58994981      14.31602050       6.15528046  T        3
