135
Lattice="20.102 0.0 0.0 0.0 19.731 0.0 0.0 0.0 13.253" Properties=species:S:1:pos:R:3:move_mask:L:1:tags:I:1 i=77 E=-3472.0240129048 regions="_JSON [\"Active\"]" n_terminators=32 energy=-908.9167095725335 pbc="F F F"
O       10.10158130       8.78417021       9.50378236  T        0
O        9.96288793      18.75653999       4.06617005  T        0
O       10.06456590      11.22492552       3.96098585  T        0
O        2.35056685      11.41076968       3.89847361  T        0
O        7.64050963       8.41828846      10.50360571  T        0
O       12.13495487      18.48224178       2.55652975  T        0
O       12.43152419      11.15752602       2.74647085  T        0
O        8.33570690       7.26816088       8.20488989  T        0
O       12.04119427      17.42307354       5.04702996  T        0
O       12.06118173      12.71749596       4.82943866  T        0
O        8.02699776       9.94225952       8.38102968  T        0
O       12.24428124      20.10559052       4.62439360  T        0
O       12.18285561      10.04528952       5.16694847  T        0
O        3.65642798      10.61820681       6.01534695  T        0
O        6.26109532       8.51399422      12.73939001  T        0
O       13.46321181      10.81987161       0.40476706  T        0
O        3.13403705       8.86685451       3.99004549  T        0
O        6.16935181      10.58288994      10.87719015  T        0
O       13.94000494       9.03231014       2.49869254  T        0
O        4.98873641      10.78184845       3.71487856  T        0
O        4.97316985       8.30654107      10.38411208  T        0
O       15.13109650      11.41637937       2.41551111  T        0
O        3.79562163      12.49618586       7.94430728  T        0
O        5.92779614      11.06689933       7.23409019  T        0
O        5.83895966      19.28332986       7.52973933  T        0
O       14.22695802       8.82053582       6.52066934  T        0
O        3.89095887       9.98413938       8.60408061  T        0
O        5.99623755      10.13689812       1.28291311  T        0
O        8.01110783      12.56942233       7.88477495  T        0
O        7.74283327      17.45428900       8.02093437  T        0
O       12.22618970       7.39395439       5.32540723  T        0
O        8.19344570      10.81698785       5.88455375  T        0
O        7.90462965      18.82547054       5.78364257  T        0
O       11.83675978       8.82390155       7.50346029  T        0
O        7.55151633      11.26199275       3.24933795  T        0
O        2.31084838       8.24043096       9.89508842  T        0
O        7.51974811      18.21016872       3.21673711  T        0
O       12.57862645       8.43451654      10.11070768  T        0
O        8.56701008       8.58005499       3.92136477  T        0
O       11.81180372      10.85964197       9.20062795  T        0
O       11.94668413      19.02701834       9.54751855  T        0
O        5.80218010      12.71621923       1.99440410  T        0
O        3.95068746       7.42172517       8.04506699  T        0
O        9.97230254      17.14463411       9.48420771  T        0
O       10.18868663      12.91051307       9.70659172  T        0
O       10.25413239       6.51868537       3.66743122  T        0
O        7.70652644      16.82336884      10.66796330  T        0
O        7.38875678      12.98241138      10.70758812  T        0
O       12.79355335       6.64199697       2.86661998  T        0
O        8.43637327      15.01908473       8.74809997  T        0
O       12.07474862       4.83181082       4.73337154  T        0
O        3.87965055       6.45520876       5.49173810  T        0
O        5.84986390      12.16460749      12.82303912  T        0
O       13.80651218       7.40292545       0.48701711  T        0
O        4.75046459      12.79564286      10.44500109  T        0
O       15.47834669       6.81648877       2.47795381  T        0
O        4.18105335       4.88512598       7.64196344  T        0
O        6.15901024       6.60616549       6.82478005  T        0
O       14.07713537      12.86712925       6.61439291  T        0
O       14.22392436      16.97055190       6.57654545  T        0
O        7.97133015       4.72743347       7.51780737  T        0
O       12.46463439      15.00338005       6.06158695  T        0
O        8.52586755       6.55176713       5.64796300  T        0
O       11.52790358      12.84270186       7.38515325  T        0
O       11.82833792      17.09874317       7.64308503  T        0
O        7.68440846       6.19154352       3.09341363  T        0
O        2.17924487      13.38067665       9.96164782  T        0
O       12.87394713      13.33829301       9.47628094  T        0
O       12.35966072      16.51973363      10.27744837  T        0
O        4.10196846      14.88414904       8.80954216  T        0
Si       8.52604810       8.59134387       9.14280835  T        0
Si      11.59500683      18.68026764       4.09746836  T        0
Si      11.69659043      11.25728718       4.19322693  T        0
Si       3.54897851      10.42006614       4.40778132  T        0
Si       6.24996417       8.98290392      11.16753269  T        0
Si      13.76496522      10.58478294       1.99524201  T        0
Si       4.32457185      11.03668908       7.44752102  T        0
Si       7.54837904      11.07638552       7.33206038  T        0
Si       7.44262790      18.92179081       7.33241445  T        0
Si      12.63440260       8.77204067       6.09380305  T        0
Al       8.59553728      10.22466901       4.31081737  T        0
Si       8.38840115      19.14840526       4.24836076  T        0
Si      11.60371682       9.24510119       9.06810185  T        0
Si       6.05719289      11.19103041       2.55038840  T        0
Si       3.80391219       8.49092932       9.25870810  T        0
Si       8.46693536      16.61311122       9.22703347  T        0
Al       8.52832051      13.30220622       9.45529685  T        0
Si      11.80956609       6.34507723       4.14262521  T        0
Si       6.07660947      12.17405520      11.18938762  T        0
Si      13.99597037       7.44536181       2.11269026  T        0
Si       4.56050657       6.34198576       7.00431169  T        0
Si       7.74647238       6.28999004       7.04934582  T        0
Si      12.55571313      13.38330603       6.24023810  T        0
Si      12.63426511      16.60414030       6.32162710  T        0
Si       8.73941821       6.98704912       4.08933109  T        0
Si      11.56352283      12.46527627       8.99664901  T        0
Si      11.54878354      17.46137630       9.21431464  T        0
Si       3.70694309      13.36798200       9.32950380  T        0
O        8.38035058      20.11965164       7.97531451  T        0
O        8.05936526      20.72027855       3.87945819  T        0
H        1.81269882      11.30123319       3.09859993  F        0
H       13.03074803      18.74401529       2.26762503  F        0
H       12.34310542      20.30287261       5.56688324  F        0
H        6.01931354       8.91222751      13.59787507  F        0
H       14.08297195      10.81847671      -0.34490677  F        0
H        3.60112680       8.06005012       4.30646574  F        0
H       15.58095515      11.20568437       3.25070227  F        0
H        5.06295559      18.75104696       7.26028496  F        0
H       15.03932990       8.88569483       5.99268334  F        0
H        5.72719027       9.20254625       1.33756862  F        0
H        1.92726146       8.79770260      10.59110356  F        0
H        6.55301950      18.28668004       3.13509397  F        0
H       13.54926599       8.42132791      10.11787432  F        0
H       11.52310955      19.83515307       9.21116341  F        0
H        5.53537813      12.95496052       1.09262639  F        0
H        6.74596320      16.92620537      10.74076342  F        0
H       11.61525895       4.01919395       4.45233654  F        0
H        3.68470478       7.32851759       5.08310689  F        0
H        5.86807409      12.98161584      13.33116226  F        0
H       14.23421140       6.74908840      -0.07819396  F        0
H       15.83774429       6.73639486       3.37716865  F        0
H        4.37526294       4.01828352       7.26036481  F        0
H       14.91456245      13.24933472       6.30897701  F        0
H       14.91456244      16.34672163       6.30897701  F        0
H        7.92514400       4.01763560       6.85279547  F        0
H        6.78202892       6.52695113       2.93525138  F        0
H        1.73086689      12.60761804      10.35624453  F        0
H       13.32025657      13.20375310      10.31771692  F        0
H       13.32025658      16.39230324      10.31771692  F        0
H        4.05997682      15.72757570       9.28699687  F        0
H        8.32625906      20.60985804       8.81306681  F        0
H        8.66651872      21.47399316       3.93953912  F        0
Fe       8.69268108      12.83159447       4.02564551  T        1
Fe       8.32312523      14.34290348       6.82574606  T        2
O        8.48405600      14.33776244       5.01357619  T        3
