139
Lattice="20.102 0.0 0.0 0.0 19.731 0.0 0.0 0.0 13.253" Properties=species:S:1:pos:R:3:move_mask:L:1:tags:I:1 i=77 E=-3472.0240129048 regions="_JSON [\"Active\"]" n_terminators=34 energy=-928.924927642987 pbc="F F F"
O       10.25317456       1.28352315       9.21923603  T        0
O       10.12289044       8.81861506       9.30443029  T        0
O        7.57681051       0.95922570      10.45496326  T        0
O        7.95511789       8.59809070      10.69883937  T        0
O       17.85666566       8.39649073       9.27997729  T        0
O       17.98876079       0.78004060       9.49694022  T        0
O        8.39646722       2.78750969       8.22904157  T        0
O        7.98894316       7.59988135       8.18681640  T        0
O        8.04423344      -0.07987891       7.85102944  T        0
O        7.94942256      10.27384214       8.62258964  T        0
O       11.48737463      10.08030279       5.08874588  T        0
O        6.64068613       0.85022338      12.86154583  T        0
O       16.33816502       9.10647997       7.22213936  T        0
O       16.51707541       0.99863346       7.28270046  T        0
O       14.00497396       0.80707552       2.46861788  T        0
O       17.09571956      10.92215218       9.11517877  T        0
O       14.12000863       9.20952682       2.49542746  T        0
O        4.90329335       1.38807035      10.89672645  T        0
O       15.22526582       9.06752453       9.59595106  T        0
O       15.34229012       1.42761645       9.65557808  T        0
O       15.75605450       7.55048767       5.15791020  T        0
O       16.38579327       2.51447260       5.08313157  T        0
O       14.02280156       9.42689694       5.85929429  T        0
O       14.24900972       1.11264088       5.91709146  T        0
O       16.35841773      10.25433238       4.88132327  T        0
O       14.12856709       9.59143600      12.00413294  T        0
O       16.31690375      -0.13815332       4.87264715  T        0
O       12.21793784       7.50530681       5.31138621  T        0
O       12.14494024       2.63304444       5.26750280  T        0
O       11.94138276       9.01959464       7.45434668  T        0
O       12.12811292       1.21841262       7.46974709  T        0
O       12.69497624       8.42738050       9.97386677  T        0
O       12.74928177       0.87778196      10.05389356  T        0
O        8.21832909       9.15166078       3.64658897  T        0
O        8.50838928       0.68393339       4.47855899  T        0
O       11.99488154      10.83677991       9.47522494  T        0
O       14.61679787       7.07749813      11.24093301  T        0
O       13.93988165       2.79209866      11.47857264  T        0
O        9.71101460       2.97866524       3.76482654  T        0
O       10.14636008       7.21549911       3.65900019  T        0
O       12.35694667       2.95786637       2.41144239  T        0
O       12.58904201       6.98663714       2.70049150  T        0
O       11.67239536       5.08770551       4.37972970  T        0
O       14.19980551       2.33194996       0.47731505  T        0
O       13.90534467       7.51413109       0.42455001  T        0
O       14.91119177       3.26909076       2.95296302  T        0
O       15.27463393       6.84182260       2.63777893  T        0
O        5.92756183       6.93979994       6.51188626  T        0
O        5.91989415       3.31354410       7.57242815  T        0
O        7.85408241       5.15299209       7.17386853  T        0
O        8.33905580       7.29226059       5.60054126  T        0
O        7.80561348       2.98874966       5.62584572  T        0
O        7.74509627       6.57411872       3.03234719  T        0
O        7.11085318       2.44642149       3.12934889  T        0
O       17.49829492       3.10545914       2.68049670  T        0
O       17.76815114       7.36253854       3.61047735  T        0
O       16.44772401       5.06265827       4.19833245  T        0
Al       8.45143191       1.13039447       8.99291132  T        0
Si       8.50090397       8.81052658       9.16474566  T        0
Si       6.26453582       0.52410291      11.28693457  T        0
Si      16.61895350       9.36986558       8.80380036  T        0
Si      16.48292505       0.56648008       8.85839167  T        0
Si      15.62537876       9.06922149       5.75766411  T        0
Si      15.86920662       1.13291354       5.78307594  T        0
Si      12.45507527       9.01376296       5.92039556  T        0
Si      12.64051803       1.20407671       5.90560453  T        0
Si      11.66586349       9.27944803       9.03938174  T        0
Si      11.67785330       0.53023200       8.88031187  T        0
Si      14.15728934       8.56131489      10.71156324  T        0
Si      14.14997685       1.32538072      10.77382832  T        0
Al      11.38947278       3.36956493       3.78801274  T        0
Si      11.64904184       6.69742339       4.00336834  T        0
Si      13.83361087       2.38479632       2.08519974  T        0
Si      13.96346901       7.61324076       2.06806188  T        0
Si       7.52697311       6.72760256       6.89080752  T        0
Si       7.48223588       3.56042438       7.09925403  T        0
Si       8.59891249       7.58676073       4.01034446  T        0
Si       8.33541946       2.28525630       4.22744208  T        0
Si      16.30581083       3.48904174       3.76362548  T        0
Si      16.31222068       6.66343214       3.90721138  T        0
O       10.06635242      -1.43038816       3.94225707  T        0
O       12.46839082      -1.29590331       2.80370692  T        0
O       12.30176452      -2.75955548       4.90432785  T        0
O       11.97654174      -0.06034731       5.14594080  T        0
O       13.77130326      -1.22293657       0.54351191  T        0
O        5.83251553      -1.06143070      11.03537787  T        0
O       15.97458096      -0.99821801       9.04979340  T        0
O       15.14378062      -1.49842081       2.87056771  T        0
O        5.80550029      -1.12298582       6.65573352  T        0
O       14.51738891       0.28963250      12.00315893  T        0
O        7.38858179      -2.69332211       8.12005690  T        0
O        8.15872619      -1.65323840       5.73361766  T        0
O        7.53277928      -1.45353869       3.10884898  T        0
O       17.81450566      -1.71272438       3.28422254  T        0
O       11.52768761      -1.08495300       8.60846890  T        0
O       16.31603583      -2.84706889       4.94793000  T        0
Si      11.67690983      -1.39057323       4.22462428  T        0
Si      13.86831057      -0.78210465       2.12218462  T        0
Si       7.37146437      -1.35231948       7.13464913  T        0
Si       8.54051258      -0.94366853       4.30968366  T        0
Si      16.34172548      -1.51599892       3.98577489  T        0
H        7.07153747       8.87866318      10.98534327  F        0
H       18.28958667       8.42947104      10.15436836  F        0
H       18.28958667       1.43588107      10.15436837  F        0
H        7.75914502      10.43742179       7.68600442  F        0
H       11.77602644      10.74421016       4.43990149  F        0
H        6.01931354       0.95312461      13.59787507  F        0
H       16.50115869      11.67065411       8.94650256  F        0
H       13.51039517       9.91158020       2.21468908  F        0
H        4.52133035       1.34033226      10.00226603  F        0
H       15.98978727      10.64983953       4.07102857  F        0
H       14.37509523      10.52815797      11.91539967  F        0
H        8.57917776       9.96978004       4.04186183  F        0
H       11.43576677      11.60834527       9.31342917  F        0
H       14.56690736       6.77574372      12.16034191  F        0
H       14.56690736       3.08960840      12.16034191  F        0
H       14.23421140       3.11626372      -0.07819396  F        0
H       14.23421140       6.74908840      -0.07819396  F        0
H        5.18772305       6.48136951       6.94399129  F        0
H        5.18772305       3.38398261       6.94399129  F        0
H        6.78202892       6.52695113       2.93525138  F        0
H        6.78202891       3.33840099       2.93525138  F        0
H       18.37141861       2.74226592       2.89672377  F        0
H       18.37141860       7.12308619       2.89672377  F        0
H       12.25872462      -3.14188650       5.79628408  F        0
H       14.08297195      -0.95342037      -0.34490676  F        0
H        6.45001594      -1.80559776      10.93294989  F        0
H       16.50115869      -1.80559776       8.94650256  F        0
H        5.06295559      -0.97995304       7.26028496  F        0
H       14.37509522      -0.66310164      11.91539968  F        0
H        8.21123678      -3.04022255       8.50458507  F        0
H        6.55301950      -1.44431996       3.13509397  F        0
H       18.17502403      -1.06794529       2.66186474  F        0
H       11.43576677      -1.74328893       9.31342918  F        0
H       15.58652088      -3.08990418       5.53385776  F        0
Fe      10.42309690       3.16058043       8.25146209  T        0
Fe      12.57995200       4.49146088       6.17483386  T        1
O       14.24866120       4.69737310       6.15882322  T        2
O       11.47280893       4.49385023       7.62853251  T        3
