142
Lattice="19.123 0.0 0.0 0.0 14.277 0.0 0.0 0.0 7.5465" Properties=species:S:1:pos:R:3:move_mask:L:1:tags:I:1 i=128 E=-2603.9155142701 regions="_JSON [\"Active\"]" n_terminators=32 energy=-959.1835493994968 pbc="F F F"
O        6.18339636       1.11883568       1.56411281  T        0
O       15.69222123       8.40725106       5.61377194  T        0
O       12.97461667       1.10751468       1.50838119  T        0
O        3.40228226       8.47134878       5.89092617  T        0
O        6.15167531      13.15978610       1.53035933  T        0
O       15.66115969       5.73007842       5.77419625  T        0
O       13.32814331      13.18329880       1.30978415  T        0
O        3.40061917       5.77973836       5.89866421  T        0
O       13.38575810      13.17215506       6.21829168  T        0
O        3.53805751       5.79282105       1.67714606  T        0
O        5.98579896      13.17250436       6.14325441  T        0
O       15.57728327       5.76189481       1.77763059  T        0
O       12.81906310       1.20044034       5.48193598  T        0
O        3.54150777       8.47931295       1.69794672  T        0
O        6.04423172       1.10683505       6.10671433  T        0
O       15.58081540       8.42944829       1.82237094  T        0
O        7.32473514       3.42515151       2.41488663  T        0
O       17.27029524      10.48801744       6.27436974  T        0
O       11.93265573       3.43580754       2.49093140  T        0
O        1.98780145      10.77678893       6.11465738  T        0
O        7.31022966      10.86261170       2.42379329  T        0
O       17.06247697       3.46385175       6.19319993  T        0
O       12.04626174      10.97941888       2.28086884  T        0
O        2.03111617       3.43507996       6.07249310  T        0
O       12.07103343      10.99589607       5.21848475  T        0
O        2.03156407       3.53638785       1.41694797  T        0
O        7.22642033      11.00765766       5.05781733  T        0
O       17.16713905       3.60073278       1.39647676  T        0
O       11.85864986       3.57979745       5.20201926  T        0
O        2.02100362      10.72172638       1.41492780  T        0
O        7.30143517       3.28398946       5.07336288  T        0
O       17.24293974      10.42289949       1.21308396  T        0
O        6.71127433       3.19453085      -0.05373912  T        0
O       16.46388628      10.07567919       3.74266632  T        0
O       12.44779462       3.22338979      -0.04247098  T        0
O        3.05277100      10.10488182       3.77730532  T        0
O        6.68625550      11.05948530      -0.04744835  T        0
O       16.11418306       4.04818482       3.75570481  T        0
O       13.26378860      10.97012307      -0.17137980  T        0
O        3.07401765       4.16757453       3.76117766  T        0
O        4.70054135       3.36758514       1.80690980  T        0
O       14.69736377      10.90695340       5.55339161  T        0
O       14.50382937       3.30717932       1.75759047  T        0
O        4.66184327      10.84300978       5.77134879  T        0
O        4.68728511      10.91192739       1.82694026  T        0
O       14.47024827       3.32785747       5.71597059  T        0
O       14.69056533      10.96368320       1.99688087  T        0
O        4.71178404       3.43881319       5.72306800  T        0
O       11.53726024       8.48829876       3.88733303  T        0
O        7.75345698       8.60329129       3.93927095  T        0
O       11.44216748       5.79936357       3.81412289  T        0
O        7.76259823       5.68811712       3.93267274  T        0
O        9.58436591      10.34145793       3.94553088  T        0
O        9.61195145       3.98246697       3.88482963  T        0
O       13.43869414       7.02984016       5.13236562  T        0
O        5.61032401       7.11538654       5.15762264  T        0
O        5.79826668       7.12442856       2.32930543  T        0
O       13.35021594       7.08214514       2.43603772  T        0
O       14.12893672       7.09060034      -0.07671798  T        0
O        5.05042611       7.14161184      -0.12695158  T        0
Si       6.16550343       2.76701072       1.43133534  T        0
Si      16.02053378       9.99064066       5.31978791  T        0
Si      13.00820317       2.75265792       1.42741739  T        0
Si       3.28172488      10.03294396       5.40388738  T        0
Si       6.15710341      11.50587134       1.43983723  T        0
Si      15.83816126       4.15985408       5.36292024  T        0
Si      13.27972637      11.52560564       1.38036222  T        0
Si       3.30595140       4.22788974       5.38504496  T        0
Si      13.29572509      11.51467035       6.14602779  T        0
Si       3.33831598       4.23695659       2.14331513  T        0
Si       6.09899763      11.52174485       6.13024743  T        0
Si      15.83037651       4.19009363       2.15098236  T        0
Si      12.99454911       2.73937600       6.04827552  T        0
Si       3.33018508      10.03845084       2.15835825  T        0
Si       6.13350800       2.75654739       6.12030525  T        0
Si      15.98094370       9.98767713       2.17722425  T        0
Al      11.40868969      10.33954974       3.74712496  T        0
Si       7.92555522      10.25011369       3.79255095  T        0
Si      11.27733143       4.12796475       3.78909632  T        0
Si       7.91596273       4.04615256       3.77714026  T        0
Si      14.81617429       7.10845232       6.04049058  T        0
Si       4.34091553       7.12765725       6.12822763  T        0
Si       4.47550068       7.13813038       1.41950245  T        0
Si      14.69220825       7.11031193       1.47061036  T        0
Si      12.48809984       7.14336460       3.81433553  T        0
Al       6.66341034       7.16598657       3.81138520  T        0
O       19.16853482       3.06655030       7.88139930  T        0
O       12.80984780       1.18802471       9.74953449  T        0
O       15.48509351       5.81565766       9.64486950  T        0
O       15.76007416       8.40578109       9.72220800  T        0
O       11.53171318       3.52361145       9.92154880  T        0
O       16.74526368       3.54211028       8.82608912  T        0
O        6.69283369       3.21111258       7.59409242  T        0
O       12.67857324       2.86526024       7.63784770  T        0
O        6.68180932      11.06122150       7.59504156  T        0
O       16.31384219       3.91576602      11.38796822  T        0
O       13.25814059      10.97328951       7.70857648  T        0
O       14.23845096       3.47938960       9.72788807  T        0
O       17.31452927       1.14308907       7.61901658  T        0
O       13.21305012       7.33919897       9.87761278  T        0
O       14.43754334       7.21588604       7.61908780  T        0
O        4.99579639       7.12240926       7.64170693  T        0
Si      12.84476213       2.77209521       9.27500265  T        0
Si      15.69563860       4.20918125       9.88875312  T        0
Si      17.56907186       2.78629073       7.61701589  T        0
Si      14.72771830       7.21412141       9.23065800  T        0
H        5.61083456       0.52083913       2.07985367  F        0
H       13.50938118       0.51971906       2.07492992  F        0
H        5.61112307      13.75835362       2.07975607  F        0
H       13.50958039      13.75682243       2.07498241  F        0
H       13.51084140      13.75504172       5.44776650  F        0
H        5.62495998      13.75277707       5.44935724  F        0
H       13.50975252       0.52161770       5.44778410  F        0
H        5.62509051       0.52255101       5.44942550  F        0
H       17.28974254      11.12548174       7.01862795  F        0
H        1.83343022      11.12554006       7.01950242  F        0
H        1.81954193       3.15353441       6.98813474  F        0
H        1.83183800       3.14857954       0.53722786  F        0
H       17.29134854       3.14797220       0.53999843  F        0
H        1.83154049      11.12909684       0.54034962  F        0
H       17.29120144      11.12876736       0.54010345  F        0
H        6.35952436       2.97904956      -0.93427223  F        0
H       12.76076393       2.97683097      -0.93375646  F        0
H        6.36236324      11.29726414      -0.93275871  F        0
H       12.76174962      11.29928001      -0.93393629  F        0
H       14.60982961       7.13673871      -0.92783774  F        0
H        4.51175007       7.13509558      -0.92932085  F        0
H       20.08726577       2.93486642       7.54597012  F        0
H       13.50938118       0.51971906       9.62142992  F        0
H       15.75699573       9.38061947       9.62630242  F        0
H       11.39369377       3.98884644      10.77146895  F        0
H        6.35949513       2.97597070       8.47938261  F        0
H        6.35946036      11.30224636       8.48133548  F        0
H       15.92754156       4.15729643      12.25107281  F        0
H       12.76333233      11.30075111       8.47967776  F        0
H       16.56036088       0.51548555       7.54573787  F        0
H       12.88235039       7.13795337      10.76981689  F        0
H        4.50898861       7.14016697       8.47499567  F        0
Fe       9.48649743       5.91462984       5.05049148  T        0
Fe       9.68516739       8.51482427       5.02452759  T        1
O       10.43691682       7.05227420       6.36279963  T        2
O        8.96098924       7.28500925       6.45920538  T        3
