144
Lattice="19.123 0.0 0.0 0.0 14.277 0.0 0.0 0.0 7.5465" Properties=species:S:1:pos:R:3:move_mask:L:1:tags:I:1 i=128 E=-2603.9155142701 regions="_JSON [\"Active\"]" n_terminators=34 energy=-969.4543602369671 pbc="F F F"
O        6.12323460       1.13811990       1.52216229  T        0
O       15.81199306       8.43423556       5.80229872  T        0
O       13.18730299       1.09805544       1.35838359  T        0
O        3.51849940       8.44925213       5.79782078  T        0
O        5.97047461      13.15542502       1.40647281  T        0
O       15.78347913       5.75275563       5.86348874  T        0
O       12.86178686      13.06412919       1.82863453  T        0
O        3.48791859       5.77000099       5.82273403  T        0
O       13.40474149      13.18372678       6.22798271  T        0
O        3.41186065       5.77411808       1.68131667  T        0
O        6.04014961      13.15573716       6.09854978  T        0
O       15.48971310       5.84810338       1.77214130  T        0
O       13.24964753       1.11765243       6.17336436  T        0
O        3.37165055       8.46378135       1.72272623  T        0
O        6.29187186       1.21335244       5.63166736  T        0
O       15.64495282       8.51958148       1.76568351  T        0
O        7.16528815       3.48529144       2.47806408  T        0
O       17.20131627      10.73038867       6.12950083  T        0
O       12.04413370       3.30593677       2.52037753  T        0
O        1.92884123      10.59566944       6.20019694  T        0
O        7.16138211      10.85898706       2.31879913  T        0
O       17.18870448       3.46087604       6.09898446  T        0
O       11.91932625      10.54175840       2.12178364  T        0
O        1.96587018       3.54053788       6.09999404  T        0
O       12.01183664      11.20517999       4.98239641  T        0
O        1.94546947       3.51618395       1.43877117  T        0
O        7.11213909      10.89903943       4.99162768  T        0
O       17.18216855       3.86762186       1.19627757  T        0
O       11.87188357       3.35090132       5.37848993  T        0
O        1.90052998      10.70008990       1.41903197  T        0
O        7.21950798       3.65781772       5.12029479  T        0
O       17.20842988      10.68615647       1.40970236  T        0
O        6.67274423       3.23418430      -0.04747042  T        0
O       16.14563755      10.16633164       3.79628133  T        0
O       12.62246564       3.32237447      -0.03537936  T        0
O        2.95218906      10.10828645       3.79406288  T        0
O        6.27971575      11.15966967      -0.21997817  T        0
O       16.29971354       4.22788761       3.71010238  T        0
O       12.87596973      11.26353190      -0.22748520  T        0
O        3.06856846       4.12004919       3.76811831  T        0
O        4.61089876       3.36694859       1.72610180  T        0
O       14.50143224      10.76078933       5.83721595  T        0
O       14.61557418       3.31180766       1.80190798  T        0
O        4.57122838      10.92203138       5.77755495  T        0
O        4.56326172      10.87208830       1.81185090  T        0
O       14.53387007       3.39767539       5.46070702  T        0
O       14.56258780      10.97317362       1.80233223  T        0
O        4.63104717       3.33812616       5.81415460  T        0
O       11.62808844       8.52480964       3.88515432  T        0
O        7.43709280       8.57327772       3.71032275  T        0
O       11.58783457       5.86752466       3.80956788  T        0
O        7.62493096       5.92324585       3.61159411  T        0
O        9.42230753      10.36109493       3.70032969  T        0
O        9.49501893       4.25697789       3.65702887  T        0
O       13.64955750       7.09218472       5.03257120  T        0
O        5.72025717       7.05867039       5.12761289  T        0
O        5.56843495       7.13354689       2.45329548  T        0
O       13.30329420       7.36197170       2.34025441  T        0
O       14.12765619       7.32535600      -0.10174944  T        0
O        4.95681018       7.17815366      -0.06624038  T        0
Si       6.10788765       2.78674133       1.43030039  T        0
Si      15.89113882      10.03299256       5.41635197  T        0
Si      13.10093141       2.75538749       1.44042287  T        0
Si       3.25665277      10.02704118       5.40571509  T        0
Si       6.00232440      11.50443935       1.35965682  T        0
Si      15.94057554       4.20361991       5.31732700  T        0
Si      13.07133419      11.48916715       1.38720878  T        0
Si       3.29704227       4.19876622       5.38941996  T        0
Si      13.08866760      11.55842790       6.13113603  T        0
Si       3.26688513       4.20212916       2.14291958  T        0
Si       6.07205503      11.50117722       6.09895939  T        0
Si      15.88099940       4.27663602       2.12483782  T        0
Si      13.17920768       2.77738300       6.15089974  T        0
Si       3.20787695      10.04062440       2.17623068  T        0
Si       6.15841343       2.80745643       6.05567300  T        0
Si      15.88640149      10.09171744       2.19125385  T        0
Al      11.16241272      10.26467820       3.82126889  T        0
Si       7.81707132      10.19442450       3.68192908  T        0
Al      11.31767351       4.06257316       3.89597082  T        0
Si       7.85194886       4.23992872       3.74419094  T        0
Si      14.89990960       7.10709860       6.10033893  T        0
Si       4.39971293       7.10555265       6.10432134  T        0
Si       4.28953499       7.13843628       1.44014875  T        0
Si      14.70588461       7.22450330       1.44430199  T        0
Si      12.55751212       7.18604063       3.85603525  T        0
Si       6.55025985       7.21543077       3.73905617  T        0
O        6.70930711       3.09939873       7.57661976  T        0
O       13.28629745       3.27794951       7.72124934  T        0
O        6.61202835      11.01947785       7.57913389  T        0
O       12.46504516      11.07964588       7.58060848  T        0
O       14.20854519       7.16534928       7.58976876  T        0
O        5.00283055       7.09494997       7.63572992  T        0
O       12.89172053      13.03254412      -2.29929962  T        0
O        6.24540429      13.01701165      -2.25118140  T        0
O        7.43590032      10.56147465      -5.38355155  T        0
O       11.77525943      10.46051968      -5.37083774  T        0
O       11.99620081      10.59264379      -2.65953755  T        0
O        7.11858574      10.57888860      -2.67918234  T        0
O       14.67648225      11.09872690      -2.26124730  T        0
O        4.45416044      11.09502931      -2.24963295  T        0
O       11.35088221       8.24450887      -3.84235171  T        0
O        7.74975146       8.25847484      -3.93608494  T        0
O        9.56693295      10.14221185      -3.83009853  T        0
Si      13.11120390      11.46492631      -1.84708856  T        0
Si       6.02284341      11.44215063      -1.82216606  T        0
Si      11.19485688       9.88742480      -3.93054079  T        0
Si       7.93248321       9.90242558      -3.94791957  T        0
H        5.61083456       0.52083913       2.07985367  F        0
H       13.50938118       0.51971906       2.07492992  F        0
H        5.61112307      13.75835362       2.07975607  F        0
H       13.50958039      13.75682243       2.07498241  F        0
H       13.51084140      13.75504172       5.44776650  F        0
H        5.62495998      13.75277707       5.44935724  F        0
H       13.50975252       0.52161770       5.44778410  F        0
H        5.62509051       0.52255101       5.44942550  F        0
H       17.28974254      11.12548174       7.01862795  F        0
H        1.83343022      11.12554006       7.01950242  F        0
H       17.28979000       3.14560285       7.02339196  F        0
H        1.81954193       3.15353441       6.98813474  F        0
H        1.83183800       3.14857954       0.53722786  F        0
H       17.29134854       3.14797220       0.53999843  F        0
H        1.83154049      11.12909684       0.54034962  F        0
H       17.29120144      11.12876736       0.54010345  F        0
H        6.35952436       2.97904956      -0.93427223  F        0
H       12.76076393       2.97683097      -0.93375646  F        0
H       14.60982961       7.13673871      -0.92783774  F        0
H        4.51175007       7.13509558      -0.92932085  F        0
H        6.35949513       2.97597070       8.47938261  F        0
H       12.76321398       2.97604733       8.47995589  F        0
H        6.35946036      11.30224636       8.48133548  F        0
H       12.76333233      11.30075111       8.47967776  F        0
H       14.61405599       7.13800201       8.47661577  F        0
H        4.50898861       7.14016697       8.47499567  F        0
H       13.51084140      13.75504172      -2.09873350  F        0
H        5.62495998      13.75277707      -2.09714276  F        0
H        6.67686405      11.12256578      -5.64493030  F        0
H       12.44599272      11.12072140      -5.64644730  F        0
H       15.19994748      10.29594087      -2.09275354  F        0
H        3.92376286      10.29502607      -2.09159850  F        0
H       12.12595522       7.65409943      -3.78385824  F        0
H        6.99606890       7.65472256      -3.78428573  F        0
Fe       9.69514499       6.25153212       2.80425549  T        0
Fe      11.49149653       8.57355223       1.61749913  T        1
O       10.14998528       7.36086387       1.40757486  T        2
