136
Lattice="24.397 0.0 0.0 0.0 24.397 0.0 0.0 0.0 24.397" Properties=species:S:1:pos:R:3:move_mask:L:1:tags:I:1 i=41 E=-6943.8331748197 regions="_JSON [\"Active\"]" n_terminators=24 energy=-953.7215044692593 pbc="F F F"
O        9.43790997      14.60368106      -0.10279214  T        0
O       12.33705025       9.46254496       2.56107196  T        0
O       14.73489854      20.86438051       6.04035929  T        0
O       12.31698725      15.75417173       8.79175261  T        0
O        9.68699659      18.39060507       3.76748241  T        0
O       15.68238631       9.40798625       6.09016771  T        0
O       18.73397821      14.86201857       8.49555169  T        0
O       18.64212425      20.76430898       2.68888107  T        0
O       14.79976419       9.54356367       0.04766126  T        0
O        9.61652664      12.14420429       2.60608252  T        0
O       15.68509693      12.21421753       8.88594788  T        0
O       18.68681339       9.75734083       3.41708602  T        0
O        9.60108935      15.75322822       6.12497427  T        0
O       14.81518734      18.18995291       8.82816232  T        0
O       12.13150350      20.89914494       3.76142117  T        0
O       15.62653315      21.03657643      -0.10651585  T        0
O       11.48091035      13.93891432       1.89883079  T        0
O       14.05778504      11.41059273       1.83147962  T        0
O       13.14638540      20.14028128       8.06911410  T        0
O       10.32673321      17.41518102       8.10759017  T        0
O       10.08344187      20.46326391       5.45410540  T        0
O       16.66567155      19.26550571       1.66239713  T        0
O       10.35191262      10.16914091       0.93200053  T        0
O       11.45916928      16.41735144       4.34107644  T        0
O       14.13892264      18.84841598       4.34204573  T        0
O       14.09188620      16.49197018       6.88310194  T        0
O       16.67059145      11.26055059       4.39533186  T        0
O       16.67827831      13.89529125       7.03367392  T        0
O       12.12105961      11.97024065       3.53509326  T        0
O       12.22368728      21.81262400       6.26696154  T        0
O       12.27683400      18.25734826       9.69562322  T        0
O        8.72389961      18.30041877       6.22977020  T        0
O       18.27557302      18.20353713       3.56048799  T        0
O       12.29014759       8.61040687       0.03126017  T        0
O        8.74663468      12.02048069       0.07464674  T        0
O       12.12622285      14.82038984       6.29503846  T        0
O       12.18946980      18.17032977       2.72702650  T        0
O       15.81542658      18.43320833       6.33768007  T        0
O       18.29382756      15.80283957       6.00681160  T        0
O       18.30097476      12.27807265       2.49326777  T        0
O       14.97747662      12.02849158       6.26755292  T        0
O       10.21622931      16.51466474       1.94186295  T        0
O       14.10184831      10.41981673       4.31820661  T        0
O       14.16628411      22.64145395       7.94966787  T        0
O       10.50736709      16.44101937      10.62319752  T        0
O        7.65520641      19.93658728       4.39476687  T        0
O       10.60133441      22.93931307       4.49352974  T        0
O       16.55799524      19.99914491       4.26337751  T        0
O       16.57367779      10.43622227       1.85488371  T        0
O       10.49535643      13.90508669       4.40119970  T        0
O        7.81918545      16.37088082       7.90800962  T        0
O       14.10013646      20.01665924      10.61082619  T        0
O       14.08202799      20.05016946       1.72641572  T        0
O        7.86069610      10.31502053       1.99313044  T        0
O       16.59087230      16.41688810       7.89389639  T        0
O       14.09851490      13.99246347       7.84970969  T        0
O       10.54075879       7.62077023       1.82196871  T        0
Al      10.69184379      15.23370441       0.87897980  T        0
Si      13.14237754      10.79223969       3.06429779  T        0
Si      13.56260573      21.37934843       7.08021242  T        0
Si      11.34309258      16.97511398       9.31377876  T        0
Si       9.05212739      19.29712847       4.97307524  T        0
Si      17.54414222      19.56847889       3.01001716  T        0
Si      15.30893276      10.83685013       0.90888384  T        0
Si      10.91457036      12.97995452       3.11834334  T        0
Si       9.11071255      16.98133607       7.10415778  T        0
Si      13.57995079      19.16817158       9.30554062  T        0
Si      11.26639918      21.51141670       4.96736270  T        0
Si      15.32660419      19.68825994       0.79576511  T        0
Si       9.13101563      11.15691341       1.38622163  T        0
Si      10.89249489      15.19417450       5.31017454  T        0
Al      13.08783268      19.66215305       3.06495453  T        0
Si      15.34705515      17.39457624       7.50064415  T        0
Si      17.57452975      10.92465982       3.06827739  T        0
Si      15.36687846      13.03141303       7.49216272  T        0
Si      11.36278317       8.95507174       1.33328521  T        0
Si      15.36651395      10.79890362       5.27029504  T        0
Si      17.58666741      15.21997792       7.36649448  T        0
Si      15.33583920      19.55702672       5.25347134  T        0
Si      10.80486333      17.40927193       3.12532942  T        0
Si      13.15649142      15.26267932       7.47858035  T        0
O       14.70153009      12.25797209      -2.58070049  T        0
O       15.73879917      18.20163514      -2.80289125  T        0
O       12.19727511      14.63368327      -2.51679820  T        0
O       18.60349670      15.59649863      -2.52101381  T        0
O       14.10730692      14.03959498      -0.64784141  T        0
O       16.62029900      16.49873187      -0.91010663  T        0
O       13.07519534      10.24022195      -1.89670054  T        0
O       10.12225720      12.92348328      -2.03469420  T        0
O       12.22232800      15.59366918       0.01417369  T        0
O       15.72854960      12.05045866      -0.09755952  T        0
O       18.35629014      14.64541007       0.02356522  T        0
O       14.98206571      18.41380964      -0.18559987  T        0
O       12.19428900      12.16323374      -3.49132323  T        0
O       16.57758404      13.97850394      -1.75119397  T        0
O       14.06883006      10.45103680      -4.41761654  T        0
O        7.48372116      13.47360850      -1.60377957  T        0
O       14.06028231      16.46415064      -1.77831378  T        0
O       10.48726933      14.03417669      -4.45580426  T        0
O       14.12268144       7.74489622      -1.75939682  T        0
Si      15.31429820      13.05979127      -1.29826913  T        0
Si      15.35596199      17.41604953      -1.40429893  T        0
Si      13.10470123      15.23320536      -1.30609877  T        0
Si      17.56638432      15.21995534      -1.29390453  T        0
Si      13.56122740       9.02868721      -0.90387004  T        0
Si      11.22871669      13.42958215      -3.11660855  T        0
Si       8.96500024      13.29756960      -0.91886582  T        0
Si      13.49862426      11.25849269      -3.10570321  T        0
H       16.48559112       9.33840607       6.62628668  F        0
H       18.82464116      14.01032609       8.95915608  F        0
H       18.82463422      21.15752504       1.81198193  F        0
H       16.48560162      11.67124930       8.95913012  F        0
H       18.82463962       9.33839646       4.28720704  F        0
H       16.48550522      21.15749796      -0.52720744  F        0
H       19.09683476      17.79487503       3.24462109  F        0
H       19.09684364      15.44301376       5.59651532  F        0
H       19.09682945      12.70103459       2.85456062  F        0
H       13.68673605      23.15239550       8.63276462  F        0
H        9.66477675      16.80915558      10.95402362  F        0
H        7.34351903      20.83116256       4.61081863  F        0
H        9.66481601      23.15243056       4.61081458  F        0
H        7.34350493      16.80917637       8.63275504  F        0
H       13.68672539      20.83112809      10.95404502  F        0
H        7.34352333       9.66479174       1.48837704  F        0
H        9.66479163       7.34352337       1.48837704  F        0
H       16.48557283      18.82464187      -2.86023677  F        0
H       18.82464171      16.48557294      -2.86023676  F        0
H       19.09678362      15.05286173       0.50248505  F        0
H       13.68673308       9.66480596      -4.85513656  F        0
H        7.34352146      13.68671965      -2.53387758  F        0
H        9.66480591      13.68673318      -4.85513656  F        0
H       13.68671953       7.34352150      -2.53387758  F        0
Fe      13.45755279      14.52173494       1.53869668  T        0
Fe      13.61361157      16.90551760       3.88408512  T        1
O       14.71561936      15.81263182       2.41792225  T        2
O       14.05022267      14.98438355       3.48613111  T        3
