139
Lattice="20.102 0.0 0.0 0.0 19.731 0.0 0.0 0.0 13.253" Properties=species:S:1:pos:R:3:move_mask:L:1:tags:I:1 i=77 E=-3472.0240129048 regions="_JSON [\"Active\"]" n_terminators=34 energy=-934.4508847701447 pbc="F F F"
O        9.95739814       8.46778439       9.23331940  T        0
O        7.64192814       8.50497698      10.52535651  T        0
O       17.95298142       8.41932929       9.23901362  T        0
O        7.89029703       6.92074816       8.40931806  T        0
O       11.95310450      16.84425932       4.68934184  T        0
O       11.87557058      12.76579557       4.68779105  T        0
O        7.72240905       9.60530748       8.18382631  T        0
O        6.64754832       8.77438562      12.87375476  T        0
O       16.65063221       8.72581217       7.04397697  T        0
O        6.17075691      19.04719175      10.87689610  T        0
O        6.09749872      10.68865641      10.99134242  T        0
O       16.67036894      10.76473892       8.87860228  T        0
O       16.35287487      19.01970049       8.79540018  T        0
O        4.94070895       8.31475833      10.85291182  T        0
O       15.24124620       8.56731170       9.34967338  T        0
O       14.09331508      17.44796640      11.92738623  T        0
O       14.31194113      12.17947498      11.97645829  T        0
O        5.82849500      10.80926304       6.65694837  T        0
O        5.81756749      18.94498935       6.67428427  T        0
O       16.09475775      18.84156487      13.17533777  T        0
O       16.15101931      10.46900457      13.14227837  T        0
O       14.42693820      19.98442465      11.33606508  T        0
O       14.14117972       9.58219851      11.55625400  T        0
O        7.98625070      12.16752926       7.58327267  T        0
O        7.97827990      17.50351611       7.55643787  T        0
O        8.26390288      10.15837447       5.74986883  T        0
O        8.21232367      19.50920088       5.69435203  T        0
O       11.50123165       8.83465528       7.20687469  T        0
O       12.63327554       8.37797375       9.68271658  T        0
O       11.40548445      10.66956231       9.24242701  T        0
O       11.34190790      18.93865463       9.26489179  T        0
O       16.34865197      17.49136350       4.88587911  T        0
O       14.22384305       6.91753086      11.25414077  T        0
O       16.23977851      12.55856782       4.46447648  T        0
O       10.08212403      16.45373819       9.27751219  T        0
O        9.97149514      13.02916117       9.18320981  T        0
O        7.27358894      16.71557617      10.27798055  T        0
O        7.48447135      12.75313978      10.16515254  T        0
O       17.85556773      13.14872129       9.41107725  T        0
O       17.76269953      17.14946705       9.89139494  T        0
O        8.12362279      14.71202327       8.43248305  T        0
O        6.27720954      17.28591914      12.76572669  T        0
O        6.53547163      12.81085708      12.63966420  T        0
O       16.61700805      12.78252901       7.13552933  T        0
O       16.59202117      16.75631501       7.40437415  T        0
O        4.57785428      16.87955449      10.75418263  T        0
O        4.79459791      13.04366443      10.68816315  T        0
O       15.13651715      12.90265331       9.33693857  T        0
O       15.08456354      16.81432820       9.53553853  T        0
O       15.92214034      14.88993338       5.62038987  T        0
O       14.16656717      12.89364179       6.12350377  T        0
O       14.16180987      16.77672236       6.25478361  T        0
O       12.31309728      14.81389501       6.30032784  T        0
O       11.85482584      12.42299489       7.33282492  T        0
O       11.82543732      17.18984696       7.35645965  T        0
O       12.33470972      13.16796516       9.89433593  T        0
O       12.46793347      16.54974935       9.91298544  T        0
O       14.02890631      14.90549415      11.13939137  T        0
Si       8.33090317       8.36713208       9.05471899  T        0
Si       6.32853317       9.09161143      11.29941934  T        0
Si      16.60167867       9.14894737       8.63761097  T        0
Si      14.57779913      18.89870418      12.53030661  T        0
Si      14.59396323      10.73770299      12.62523515  T        0
Si       7.43203320      10.71621597       7.04557742  T        0
Si       7.43961296      18.93925329       7.03969288  T        0
Si      11.42015725       9.06167767       8.83568720  T        0
Si      14.07811577       8.37176820      10.48372560  T        0
Al       8.24269353      16.40407588       8.87336197  T        0
Si       8.30942216      13.18104093       8.82280938  T        0
Si       6.10209017      17.43093952      11.13036565  T        0
Si       6.21307400      12.31396371      11.10522197  T        0
Si      16.53940397      12.39562971       8.73334003  T        0
Si      16.47115521      17.40662150       8.90343742  T        0
Si      15.74431471      13.27994526       5.85667571  T        0
Si      15.75722356      16.46254834       6.02749149  T        0
Si      12.57904823      13.22136376       6.09967389  T        0
Si      12.58374801      16.40964415       6.13794359  T        0
Si      11.41579696      12.22933918       8.88080994  T        0
Si      11.41105211      17.38150358       8.91160798  T        0
Al      14.04656766      13.23325095      10.63370061  T        0
Si      13.98919272      16.42633607      10.66533395  T        0
O        9.99121168      21.18729079       9.26503371  T        0
O        7.67554579      21.21819376      10.53619447  T        0
O       17.99891448      21.14698356       9.22102005  T        0
O        7.99042195      22.76593134       8.41021591  T        0
O        7.77683052      20.08696020       8.15346700  T        0
O        6.61311274      20.92627693      12.86840530  T        0
O       16.63708055      21.02418959       7.00114926  T        0
O        4.97068249      21.40233049      10.79750168  T        0
O       15.29652507      21.39031420       9.30821622  T        0
O       11.49621601      20.73856865       7.20484295  T        0
O       12.67202739      21.17540370       9.65097418  T        0
O       14.04512764      22.66178498      11.35070168  T        0
Si       8.36046402      21.30113417       9.06121138  T        0
Si       6.34624048      20.61811549      11.27914158  T        0
Si      16.56354344      20.62917134       8.59715964  T        0
Si      11.40925349      20.53981981       8.83367235  T        0
Si      14.10867717      21.30204171      10.42804578  T        0
O       12.08021628      10.82326287      15.96574275  T        0
O       13.55799116      19.38823907      13.71731367  T        0
O       13.71137217      10.48855257      13.97597571  T        0
O       13.97741090       8.82829070      16.07078119  T        0
O       14.62815959      11.37610505      16.42910058  T        0
Si      13.61934427      10.37450318      15.59616532  T        0
H       18.28958667       8.42947104      10.15436836  F        0
H        7.84356088       6.72376138       7.45668423  F        0
H       11.77741499      17.76721957       4.45015374  F        0
H       11.77741500      11.82883679       4.45015372  F        0
H        6.01931354       8.91222751      13.59787507  F        0
H       16.07044731       8.91222497       6.28158540  F        0
H        4.52133035       8.52501985      10.00226603  F        0
H        5.06295559      10.84500939       7.26028495  F        0
H        5.06295559      18.75104696       7.26028496  F        0
H       16.97340650      18.78964577      12.75613404  F        0
H       16.97340651      10.80641058      12.75613404  F        0
H        8.50665683      10.58475679       4.91774357  F        0
H        8.50665683      19.01129957       4.91774358  F        0
H       12.20788617       8.97653229       6.55602501  F        0
H       15.87290964      17.87210703       4.12309272  F        0
H       14.56690736       6.77574372      12.16034191  F        0
H       15.87290964      11.72394929       4.12309273  F        0
H       18.05303808      13.25020103      10.35989921  F        0
H       18.05303809      16.34585533      10.35989921  F        0
H        5.86807409      16.61444052      13.33116226  F        0
H        5.86807409      12.98161584      13.33116226  F        0
H        4.26454119      16.60174699       9.87579966  F        0
H        4.26454119      12.99430937       9.87579967  F        0
H       18.28958667      21.16688107      10.15436837  F        0
H        7.84356087      22.87259074       7.45668424  F        0
H        6.01931354      20.68412461      13.59787507  F        0
H       16.07044730      20.68412712       6.28158542  F        0
H        4.52133035      21.07133226      10.00226603  F        0
H       12.20788616      20.61981982       6.55602502  F        0
H       14.56690736      22.82060840      12.16034191  F        0
H       11.86384157      11.30123319      16.78088421  F        0
H       13.51650675      19.01504758      14.61047976  F        0
H       13.65226955       8.06005012      15.57301841  F        0
H       15.58095515      11.20568437      16.50370227  F        0
Fe      11.13551101      14.80420225       9.83956101  T        1
