147
Lattice="19.123 0.0 0.0 0.0 14.277 0.0 0.0 0.0 7.5465" Properties=species:S:1:pos:R:3:move_mask:L:1:tags:I:1 i=128 E=-2603.9155142701 regions="_JSON [\"Active\"]" n_terminators=36 energy=-981.9519677624152 pbc="F F F"
O       15.34632336       8.54739538       5.78683248  T        0
O       12.79187018       1.17744815       2.09257619  T        0
O       15.63213065       5.93093381       5.52864109  T        0
O       12.81203721      13.15063634       1.77843585  T        0
O       12.65538020      13.33684638       5.66557532  T        0
O       15.75710745       5.95854725       2.11601282  T        0
O       13.09119449       1.15873093       6.06179670  T        0
O       15.55982494       8.57526709       1.79754803  T        0
O       17.14226542      10.66916580       6.18284229  T        0
O       11.62919667       3.50736088       2.35969527  T        0
O       16.91685601       3.97832621       6.68131867  T        0
O       11.84608359      10.73018183       2.41039170  T        0
O       11.64688968      10.87059811       5.09832428  T        0
O       17.10653736       3.39682767       1.28343440  T        0
O       11.89702971       3.44446967       5.02287533  T        0
O       17.00568697      10.79052908       1.28758551  T        0
O       16.25943516      10.22642844       3.75533039  T        0
O       12.63353067       2.85649714      -0.05295371  T        0
O       16.42225379       4.15399543       3.95458978  T        0
O       12.72524575      11.25520455      -0.08277603  T        0
O       14.25404388      11.27521691       5.67906762  T        0
O       14.28488650       3.43841630       1.98170246  T        0
O       14.45738723       3.44517008       5.70045969  T        0
O       14.44583409      11.01596718       1.95363679  T        0
O       11.48486434       8.49551945       3.83965117  T        0
O       17.33594013       1.08959933      -0.18488252  T        0
O       11.43502922       5.79174527       3.73737430  T        0
O       17.30467502      13.12827049      -0.11509637  T        0
O        9.50067693      10.35122458       3.49634101  T        0
O        9.49679669       3.90436257       4.02712949  T        0
O       13.23113074       7.02149769       5.22711588  T        0
O       13.40617454       7.17021586       2.53512969  T        0
O       14.36254232       6.98975147       0.01905890  T        0
Al      15.55011330      10.23133042       5.40502492  T        0
Si      12.87513008       2.75838505       1.57677519  T        0
Si      15.82939054       4.26443884       5.47934425  T        0
Si      12.95195517      11.53162795       1.51558205  T        0
Si      12.73434116      11.71381630       6.00758489  T        0
Al      15.84921912       4.11164012       2.23123531  T        0
Si      12.97777911       2.80662984       6.06997860  T        0
Si      15.80411502      10.15017747       2.17749711  T        0
Si      11.10529692      10.10235899       3.74007986  T        0
Si      17.60154654       2.73789360      -0.11385992  T        0
Si      11.10112387       4.17104191       3.76852115  T        0
Si      17.57916513      11.49660356      -0.08314049  T        0
Si      14.61759941       7.14891726       6.07433760  T        0
Si      14.74408691       7.16898597       1.59323568  T        0
Si      12.37949234       7.12274371       3.82325449  T        0
O       21.62227020      11.08726154       8.97698148  T        0
O       21.06234073      13.07115865       7.24664345  T        0
O       19.20317878      11.26609974       7.71989418  T        0
O       24.12862054       7.03199940       7.63665743  T        0
Si      20.84116654      11.47263099       7.57105600  T        0
O       22.87420203       8.43345410       5.66696608  T        0
O       22.84108566       5.72931453       5.59966830  T        0
O       22.41890544       8.36995061       1.83789303  T        0
O       21.31605547      10.53494865       6.27633481  T        0
O       21.18997366       3.63572892       6.15846311  T        0
O       21.55291518      10.79087932       1.26188903  T        0
O       22.42142236      10.26317524       3.77577624  T        0
O       22.39102166       3.78522113       3.73974190  T        0
O       23.81344065      11.00782373       6.02755469  T        0
O       24.23178950      10.29884209       1.73218805  T        0
O       23.78764918       3.18106539       5.99602213  T        0
O       20.92916334      13.15892739       0.09932220  T        0
O       19.20794900       2.98418346      -0.43838883  T        0
O       19.20913222      11.25168969      -0.10103823  T        0
O       25.17953412       7.06470290       5.26474441  T        0
Si      22.63185000      10.04089985       5.40140284  T        0
Si      22.56992406       4.10953170       5.36189857  T        0
Si      22.66058176       9.97047302       2.16164259  T        0
Si      20.84070231      11.52105370      -0.05077864  T        0
Si      23.71012100       7.06197822       6.03720297  T        0
O       21.57982904      11.07857019      -1.46392372  T        0
O       12.83341579      13.06919943       9.77745675  T        0
O       15.71973602       5.85262582       9.82530735  T        0
O       15.48009666       8.44665946       9.59340984  T        0
O       11.50370759      10.75448980       9.92192427  T        0
O       16.77068354      10.71752651       8.82007406  T        0
O       16.18032158      10.40782606      11.35054682  T        0
O       12.51000760       3.27053031       7.58072241  T        0
O       12.42507107      11.46984076       7.60262292  T        0
O       14.19903910      10.76582755       9.50906857  T        0
O       17.27154194      13.08206446       7.50796879  T        0
O       13.18600456       6.96062833       9.86835608  T        0
O       14.41035483       6.87090758       7.65658148  T        0
Si      12.77170133      11.51789166       9.20443781  T        0
Si      15.64064685      10.06843721       9.82835186  T        0
Si      17.57722370      11.46151592       7.59137925  T        0
Si      14.71218147       7.03258797       9.25415764  T        0
O       15.50023868       8.45825368      -1.92582025  T        0
O       15.52213056       5.79365152      -2.07149684  T        0
O       12.82056929      13.06247441      -2.13308926  T        0
O       12.81041905       1.19787418      -2.19436003  T        0
O       16.85455706      10.72453024      -1.34284642  T        0
O       16.79386601       3.50351863      -1.33725004  T        0
O       11.58737777      10.69905101      -2.37504831  T        0
O       11.53801376       3.54064388      -2.37941197  T        0
O       16.36268313      10.18508274      -3.83999449  T        0
O       16.28669081       3.88872413      -3.84605210  T        0
O       14.30783205      10.82371240      -2.20130189  T        0
O       14.23457662       3.48320034      -2.11643333  T        0
O       13.14945431       7.13512367      -2.30028927  T        0
Si      15.73632068      10.03704537      -2.32281971  T        0
Si      15.70029476       4.17207555      -2.33312264  T        0
Si      12.88355515      11.46361083      -1.70677815  T        0
Si      12.82602838       2.77554575      -1.68281012  T        0
Si      14.64608137       7.09347441      -1.60066368  T        0
H       13.50938118       0.51971906       2.07492992  F        0
H       13.50958039      13.75682243       2.07498241  F        0
H       13.51084140      13.75504172       5.44776650  F        0
H       13.50975252       0.52161770       5.44778410  F        0
H       17.28979000       3.14560285       7.02339196  F        0
H       16.56036088       0.51548555      -0.00076213  F        0
H       16.56020813      13.76127004      -0.00066979  F        0
H        8.59739021      10.07362933       3.76217937  F        0
H        8.59637561       4.20354031       3.76204115  F        0
H       22.00483182      10.29715766       9.41435165  F        0
H       21.68557806      13.76129914       7.54737584  F        0
H       23.63198861       7.14016697       8.47499567  F        0
H       23.06957714       7.66254159       1.68550051  F        0
H       20.94254193       3.15353441       6.98813474  F        0
H       22.32326696       4.16316078       2.82892343  F        0
H       24.76092223      11.11473374       5.84604825  F        0
H       24.75845825      11.12041654       1.68709931  F        0
H       24.75385446       3.15950316       5.84781029  F        0
H       21.68557806      13.76129914       0.00087584  F        0
H       20.08726577       2.93486642      -0.00052988  F        0
H       25.36244212       7.13797332       4.30618001  F        0
H       22.00608000      10.28902905      -1.85963567  F        0
H       13.50958039      13.75682243       9.62148241  F        0
H       15.75706449       4.89440344       9.62693705  F        0
H       11.39439525      10.28733182      10.77116771  F        0
H       15.92688062      10.11457984      12.25007275  F        0
H       12.76321398       2.97604733       8.47995589  F        0
H       16.56020813      13.76127004       7.54583021  F        0
H       12.88235039       7.13795337      10.76981689  F        0
H       13.51084140      13.75504172      -2.09873350  F        0
H       13.50975252       0.52161770      -2.09871590  F        0
H       11.39521725      10.28762784      -3.24237523  F        0
H       11.39412799       3.98861071      -3.24188863  F        0
H       15.92569105      10.11584057      -4.70878458  F        0
H       15.92661844       4.15901570      -4.70770176  F        0
H       12.88191441       7.13773895      -3.23957932  F        0
Fe      17.93045370       9.32968640       4.77827464  T        0
Fe      16.92469677       6.37953603       3.78997960  T        1
O       18.20711470       7.64155866       4.17472842  T        2
