136
Lattice="20.102 0.0 0.0 0.0 19.731 0.0 0.0 0.0 13.253" Properties=species:S:1:pos:R:3:move_mask:L:1:tags:I:1 i=77 E=-3472.0240129048 regions="_JSON [\"Active\"]" n_terminators=28 energy=-941.1601131413983 pbc="F F F"
O       10.16444339       8.40458383       9.43855125  T        0
O        0.05415683       8.38572415      10.46019403  T        0
O       10.32882371      11.36896013       3.74028215  T        0
O        2.32027041      11.28267416       3.92043557  T        0
O        7.78458966       8.99540830      10.53161243  T        0
O       12.93337878      11.50855315       2.97255797  T        0
O        8.30892473       2.85735378       8.44430706  T        0
O        7.84321178       7.65730886       8.26667099  T        0
O       12.23113313      12.56809920       5.19460636  T        0
O        8.61060691      10.18756160       8.27789546  T        0
O       12.17139881       9.88392660       4.98479274  T        0
O        3.85309386      10.70074581       5.88921594  T        0
O        6.63361055       8.94464022      12.84513689  T        0
O        3.37109364       8.78093935       4.07529611  T        0
O        5.99328398      10.89841704      11.02802678  T        0
O        4.01776384       0.67754924       4.08781182  T        0
O        4.98856787      10.81439038       3.48744215  T        0
O        5.14178204       8.42261648      10.63468283  T        0
O        6.04774097       2.59095042       1.13961437  T        0
O        4.34616173      12.54579705       8.19422694  T        0
O        5.53029802       7.49763171       1.49592509  T        0
O        6.38682742      10.73243886       7.03031530  T        0
O        3.91784391       9.47408946       0.62255443  T        0
O       14.22222773       8.93723796       6.51489940  T        0
O        4.49817266       9.55752521       8.34458028  T        0
O        6.34413405      10.09678866       1.32824635  T        0
O        8.10475907      12.73162671       7.68545403  T        0
O       12.43603357       7.27054733       5.28462610  T        0
O       12.40781493       2.55317565       5.54618766  T        0
O        8.69684759      10.97165594       5.74440260  T        0
O        1.57038631       8.58244242      12.65326771  T        0
O       11.78489842       8.80516844       7.38056798  T        0
O        7.62943934      11.31958575       3.34063155  T        0
O        2.57124508       8.94491570      10.15567296  T        0
O       12.69844286       8.06350954       9.82741339  T        0
O        8.99970990       9.10870389       3.80087958  T        0
O        1.03159970      10.80904107      11.24587247  T        0
O        8.46949714       0.74540147       3.58902389  T        0
O       11.76066964      10.55477725       9.41836716  T        0
O        3.74545588       2.21692720       8.36482556  T        0
O        6.05235263      12.74216936       1.88532025  T        0
O        3.79152788       7.05788977       8.70843588  T        0
O       10.03664578      12.58190767       9.49807311  T        0
O       10.16217162       2.81680812       4.02063242  T        0
O       10.14422965       6.72442012       3.93750225  T        0
O        2.55757951       6.21430204       3.66969313  T        0
O        7.54215486      12.96776744      10.26514060  T        0
O        2.29017260       2.59591989       3.41525877  T        0
O       12.43817634       2.64569474       2.79216263  T        0
O       12.41155171       6.86181888       2.62234117  T        0
O        8.99769563      14.92752001       9.05886172  T        0
O       11.94487621       4.82129145       4.35697111  T        0
O        3.42183264       6.90589056       6.02743758  T        0
O        6.60918508      12.91874335      12.70956284  T        0
O        3.59438646       2.74521816       5.79921689  T        0
O        5.15959323       6.77377424       4.00954204  T        0
O        4.91303386      13.29867304      10.69068097  T        0
O        4.98053305       3.03902359       3.58593880  T        0
O        4.14417961       4.73194826       7.47558441  T        0
O        5.81178097       6.81592712       7.02868504  T        0
O        5.99762673       2.86533077       7.03946411  T        0
O       14.19792471      13.85126483       6.56809138  T        0
O        7.87667924       4.80005702       6.85055106  T        0
O       11.74786225      14.85291125       6.52145779  T        0
O        8.16422022       7.41418781       5.62057458  T        0
O        1.32494112      13.18525796      12.42637704  T        0
O        8.23819388       2.34132571       5.78070168  T        0
O       12.15141049      12.57618383       7.80457778  T        0
O        7.65029774       6.95485670       3.04476476  T        0
O        2.41331786      12.70037034       9.97777924  T        0
O        7.62765669       3.18539006       3.29563167  T        0
O       12.41148533      12.92025704      10.48156064  T        0
O        3.48980216      14.95825658       9.11636851  T        0
O        6.06240382       5.00188693       2.19220697  T        0
Si       8.62301903       8.79352212       9.14678292  T        0
Si      11.89385223      11.30794987       4.23006324  T        0
Si       3.64272380      10.39810017       4.33046491  T        0
Si       6.36597165       9.32242514      11.27240917  T        0
Al       4.62174108      11.07343094       7.36978666  T        0
Si       5.46700197       8.89165521       0.65556833  T        0
Si       7.96398944      11.19598425       7.16310766  T        0
Si      12.66430906       8.71805600       6.01445348  T        0
Si       8.89621826      10.68745054       4.14468487  T        0
Si       1.29782542       9.20634562      11.14666954  T        0
Si      11.63229275       8.98848677       8.99847712  T        0
Si       6.22319607      11.23340920       2.51142088  T        0
Si       3.96657688       8.49886589       9.48138167  T        0
Si       8.64806703      13.33362567       9.12700334  T        0
Si      11.73752687       3.20483653       4.18094075  T        0
Si      11.73502410       6.41673957       4.06382541  T        0
Si       3.63325538       7.21000266       4.42755165  T        0
Si       6.26545787      12.51349373      11.15413951  T        0
Si       3.69117482       2.28863513       4.22449577  T        0
Si       4.26350654       6.33465041       7.30748838  T        0
Si       4.39773099       3.13712698       7.16600963  T        0
Al       7.58007093       6.46702682       6.93305490  T        0
Si       7.60030698       3.22559471       7.00535867  T        0
Si      12.59665897      13.45117960       6.50780044  T        0
Si       8.73787885       7.53301518       4.12117351  T        0
Si       1.16310471      12.41959485      10.97091986  T        0
Si       8.63601443       2.26733606       4.19234830  T        0
Si      11.59009241      12.16979386       9.27624705  T        0
Si       6.11711495       6.54932388       2.68955446  T        0
Si       3.80984942      13.38236276       9.46632758  T        0
Si       6.18617485       3.41367610       2.55663152  T        0
O        6.04326657       8.53361117      -0.84166714  T        0
O       -0.17369141      13.00962293      10.22921768  T        0
H       -0.89571882       8.42972886      10.66739018  F        0
H        1.81269882      11.30123319       3.09859993  F        0
H       13.03074804      10.85204106       2.26762503  F        0
H        8.32487049       1.96348467       8.80281458  F        0
H        6.01931354       8.91222751      13.59787507  F        0
H        3.45924363      -0.04624542       4.41174334  F        0
H        5.69664664       1.68513527       1.05659762  F        0
H        3.12887899       8.92429365       0.49683426  F        0
H       15.03932990       8.88569483       5.99268334  F        0
H       12.40451338       1.61243810       5.80455660  F        0
H        2.15673527       8.97653516      13.32343298  F        0
H       13.54926599       8.42132791      10.11787432  F        0
H        8.57917594      -0.10444883       4.04180490  F        0
H        4.22937586       1.85859719       9.12987557  F        0
H        5.53537813      12.95496052       1.09262639  F        0
H        2.04924741       6.48050321       2.89306910  F        0
H        2.04924740       3.38484890       2.89306909  F        0
H       13.35632229       2.80449888       2.51220488  F        0
H       13.35632228       7.06085325       2.51220488  F        0
H        8.48702655      15.71151028       8.80063176  F        0
H        5.86807409      12.98161584      13.33116226  F        0
H       14.91456245      13.24933472       6.30897701  F        0
H       12.17714149      15.71306863       6.40017283  F        0
H        2.04221098      12.92196288      13.02389096  F        0
H       13.32025657      13.20375310      10.31771692  F        0
H        4.05997682      15.72757570       9.28699687  F        0
H        6.58577874       9.14969547      -1.35751146  F        0
H       -1.04605969      13.03623234      10.65268580  F        0
Fe       6.20763957       8.75456343       7.40234569  T        1
