142
Lattice="20.102 0.0 0.0 0.0 19.731 0.0 0.0 0.0 13.253" Properties=species:S:1:pos:R:3:move_mask:L:1:tags:I:1 i=77 E=-3472.0240129048 regions="_JSON [\"Active\"]" n_terminators=28 energy=-989.0365227785794 pbc="F F F"
O       10.05621877       8.54668743       9.35934306  T        0
O       10.11264383      11.35958235       4.18634431  T        0
O        2.32668283      10.61230016       3.46083028  T        0
O        7.62120733       8.68485425      10.48472100  T        0
O       12.21880626      11.24492584       2.62851036  T        0
O        7.88791200       2.81841181       8.68019004  T        0
O        2.30308119      12.39716269       1.58618137  T        0
O        7.98788472       7.12723349       8.38359635  T        0
O       12.35673183      12.55524053       4.96978478  T        0
O        1.48419902       9.84590353       1.03141205  T        0
O        8.06937848       9.79582079       8.12837442  T        0
O       12.25108317       9.89762839       4.96758452  T        0
O        3.55291528      10.91248803       5.81781465  T        0
O        6.37790438       8.60934424      12.74700660  T        0
O        3.96087979       8.71144732       4.42280235  T        0
O        6.53766816      10.96074796      11.40544987  T        0
O        4.00485352       0.71772247       4.13080539  T        0
O        4.99126553      11.00188457       3.56432801  T        0
O        4.95418984       9.07725254      10.48101037  T        0
O        6.40221171       1.79464536       1.69845472  T        0
O        3.81393752      12.48827696       7.93211349  T        0
O        6.07519864       7.33457114       1.26131478  T        0
O        5.82047954      10.83290640       7.18383193  T        0
O        3.81718828       8.58254168       0.75949331  T        0
O       14.26162652       9.00914919       6.55871410  T        0
O        3.60414551       9.90733534       8.32169818  T        0
O        6.00413002      10.00193182       1.32106839  T        0
O        2.52812536       2.49906996       1.17220759  T        0
O        7.88111091      12.41725953       7.71400337  T        0
O        1.58701311       7.15918924       1.02775615  T        0
O       12.48815170       7.31126761       5.38522017  T        0
O       12.68116734       2.50684927       5.53635168  T        0
O        8.00002089      10.72555210       5.68271250  T        0
O       11.82256097       8.92627893       7.42674866  T        0
O        7.65275051      11.06202117       3.11710327  T        0
O        2.44558998       8.20062739      10.03480740  T        0
O       12.59378107       8.28226724       9.96884898  T        0
O        9.06055755       8.97228590       3.95484618  T        0
O        9.21572416       0.62330553       4.14598936  T        0
O       11.61268862      10.73209912       9.39080488  T        0
O        4.84207034       1.87312687       8.38459000  T        0
O        6.17896567      12.66115806       1.75505487  T        0
O        4.38256775       7.37536878       8.50165011  T        0
O       -0.17982904       6.54485355       2.97298255  T        0
O        9.97572702      12.85440332       9.28955340  T        0
O        0.14275037       2.30995625       2.29088894  T        0
O       10.32952583       2.96715311       4.27914916  T        0
O       10.25653255       6.58684765       4.01746617  T        0
O        2.45469189       6.76071163       3.48121608  T        0
O        7.52375411      13.17821098      10.25418970  T        0
O        2.31038618       2.81659546       3.82989036  T        0
O       12.43555330       2.72891797       2.80154308  T        0
O       12.41925735       6.92110720       2.69656951  T        0
O        8.41844895      14.86781999       8.32579524  T        0
O        1.47432443       4.70122465       2.13757066  T        0
O       12.23076543       4.85453287       4.46752386  T        0
O        3.74870769       6.28733984       5.73688197  T        0
O        6.30649163      13.36406265      12.55369700  T        0
O        3.69970430       2.58827495       6.08016076  T        0
O        5.14542512       6.44446614       3.63606001  T        0
O        4.86694070      12.75131412      10.35719736  T        0
O        4.96854979       3.25495862       3.89688739  T        0
O        4.21257679       4.50758079       7.88563451  T        0
O        6.17070899       6.12403879       6.59378404  T        0
O        6.20105105       3.29780469       6.60790987  T        0
O       14.18332742      13.85825187       6.49573711  T        0
O        8.36869210       4.82228145       7.01700695  T        0
O       11.76030760      14.85735507       6.21168274  T        0
O        8.44660908       7.21834125       5.81005320  T        0
O        8.65653194       2.25542771       6.20973957  T        0
O       12.05493039      12.57199531       7.58368220  T        0
O        7.72762461       6.78923478       3.27233151  T        0
O        2.26029875      13.35762492      10.02401650  T        0
O        7.71757229       2.98366707       3.88770718  T        0
O       12.35420133      13.20485031      10.22012650  T        0
O        4.10127116      14.88097902       8.81540863  T        0
O        6.42948018       4.78267287       2.09379942  T        0
Si       1.48290958      11.06943724       2.12886443  T        0
Si       8.44593384       8.54210831       9.08851224  T        0
Si      11.74339560      11.24838550       4.20092647  T        0
Si       3.70374675      10.32926425       4.30467667  T        0
Si       6.35135770       9.34146116      11.27648840  T        0
Si       4.20954536      11.03406832       7.31446403  T        0
Si       5.43312961       8.67248331       0.58197190  T        0
Si       7.43966795      10.94964387       7.18033538  T        0
Si       2.22961064       8.52704472       0.40274297  T        0
Si      12.69994591       8.78251584       6.06883610  T        0
Si       8.70574035      10.53681431       4.23925953  T        0
Si      11.54810598       9.13862430       9.03045726  T        0
Si       6.17621253      11.17404324       2.44667087  T        0
Si       3.86863387       8.64176878       9.33474090  T        0
Si       1.33915245       6.29795277       2.39210901  T        0
Si       8.46152899      13.34388884       8.92287395  T        0
Si       1.58500946       3.09637865       2.38093501  T        0
Si      11.92029601       3.25579089       4.27577599  T        0
Si      11.86516551       6.41278670       4.16096013  T        0
Si       3.77612215       7.10659181       4.33619779  T        0
Si       6.29816721      12.54921592      11.12148112  T        0
Si       3.72983644       2.30776696       4.46675370  T        0
Al       4.51269383       6.14957195       7.34277116  T        0
Si       4.68094111       3.08475658       7.30124020  T        0
Si       7.75705165       6.34179963       6.98187906  T        0
Si       7.80339304       3.29065958       7.11713035  T        0
Si      12.59276123      13.44829751       6.31508512  T        0
Si       8.87367879       7.39097360       4.24912989  T        0
Si       8.93394037       2.18809602       4.57025121  T        0
Si      11.50638339      12.33821073       9.10512003  T        0
Si       6.37881809       6.32565683       2.49152675  T        0
Si       3.75445983      13.35914564       9.31613154  T        0
Al       6.42174434       3.14795276       2.74474907  T        0
O        5.77483847       8.73431858      -1.02030591  T        0
O        1.99950866       8.44913250      -1.21527902  T        0
O       -0.08961284      11.43117271       2.48847936  T        0
H       13.03074804      10.85204106       2.26762503  F        0
H        8.32487049       1.96348467       8.80281458  F        0
H        2.20758188      13.00694286       0.83020008  F        0
H        6.01931354       8.91222751      13.59787507  F        0
H        3.45924363      -0.04624542       4.41174334  F        0
H        5.69664664       1.68513527       1.05659762  F        0
H       15.03932990       8.88569483       5.99268334  F        0
H        2.35337064       1.61243811       0.82192755  F        0
H       12.40451338       1.61243810       5.80455660  F        0
H        1.92726146       8.79770260      10.59110356  F        0
H       13.54926599       8.42132791      10.11787432  F        0
H        8.57917594      -0.10444883       4.04180490  F        0
H        4.22937586       1.85859719       9.12987557  F        0
H        5.53537813      12.95496052       1.09262639  F        0
H       -0.70903753       7.30425969       2.68512250  F        0
H       -0.70903753       2.56109242       2.68512249  F        0
H       13.35632229       2.80449888       2.51220488  F        0
H       13.35632228       7.06085325       2.51220488  F        0
H        8.48702655      15.71151028       8.80063176  F        0
H        5.86807409      12.98161584      13.33116226  F        0
H       14.91456245      13.24933472       6.30897701  F        0
H       12.17714149      15.71306863       6.40017283  F        0
H        1.73086689      12.60761804      10.35624453  F        0
H       13.32025657      13.20375310      10.31771692  F        0
H        4.05997682      15.72757570       9.28699687  F        0
H        6.58577874       9.14969547      -1.35751146  F        0
H        1.54448592       9.14594745      -1.70877228  F        0
H       -0.90389482      10.88061926       2.50078840  F        0
Fe       5.54211038       4.85459853       5.06036524  T        1
