142
Lattice="24.397 0.0 0.0 0.0 24.397 0.0 0.0 0.0 24.397" Properties=species:S:1:pos:R:3:move_mask:L:1:tags:I:1 i=41 E=-6943.8331748197 regions="_JSON [\"Active\"]" n_terminators=34 energy=-950.6211286973828 pbc="F F F"
O       21.64338598       2.57288465       0.10714919  T        0
O       11.92154736       9.63456012       2.71000202  T        0
O       21.80251565       6.21652155       3.47296474  T        0
O       15.67168175       9.73174162       6.23327432  T        0
O       20.85755445      12.38644172       3.66459884  T        0
O       15.55119473       6.28511889       9.72652711  T        0
O       14.84316396       9.80789892      -0.31939636  T        0
O       21.89212520      -0.14164210       2.60605572  T        0
O       18.25659519       9.71307306       3.46647652  T        0
O       21.95927025       3.42129035       6.37076325  T        0
O       18.43839808       3.30973360       9.68874657  T        0
O       23.74708221       1.64151018       1.94996764  T        0
O       13.79395853      11.25281950       1.70963845  T        0
O       22.66646088       5.49984760       7.95155177  T        0
O       22.74134174       8.11821314       5.46657435  T        0
O       17.66296888      10.50638516       7.90016502  T        0
O       20.18658646      10.39847354       5.25740795  T        0
O       23.44411853       4.26811441       4.33898533  T        0
O       18.86838309      14.15530051       4.25392284  T        0
O       16.42029983      11.45174071       4.32158350  T        0
O       17.64734172       7.86844608      10.54766195  T        0
O       19.98512568       5.36892212      10.66150689  T        0
O       12.13851958      12.21203285       3.63882087  T        0
O       20.87392676       5.89907588       6.12969603  T        0
O       18.17559899       8.81423688       6.00024776  T        0
O       21.96358416      12.24671023       6.15467357  T        0
O       20.90444873       0.00555697       0.09275120  T        0
O       24.50928719       2.49344025       6.08564532  T        0
O       24.35042069       6.15663643       2.68511546  T        0
O       18.34937087      12.22807585       2.61886890  T        0
O       14.59792032      12.22294227       6.18181146  T        0
O       18.11334762       5.88757453       8.91794063  T        0
O       22.58690598       4.33653600       1.79459135  T        0
O       13.93550142      10.48200367       4.30302288  T        0
O       20.00958580       7.92652436       4.27687065  T        0
O       16.63930133       7.97717953       8.03054026  T        0
O       22.72167757      10.53938406       4.34332232  T        0
O       20.20117914      14.06574883       1.82134905  T        0
O       16.38738940      10.57465398       1.78002542  T        0
O       22.66758164       1.69963561       4.40745390  T        0
O       20.22270133       4.32586193       8.16545048  T        0
Al      23.27348448       2.92133813       0.91117679  T        0
Si      12.93517089      10.89590710       3.06554884  T        0
Al      21.45443597       7.07392787       5.02986524  T        0
Si      17.00659248       9.24385047       7.06058578  T        0
Si      21.42881029      11.40634692       4.85041113  T        0
Si      15.13179559      10.98959000       0.80170789  T        0
Si      23.17277471       0.73989940       3.16471073  T        0
Si      19.14022134       9.25290602       4.76761664  T        0
Si      21.41458545       4.77796776       7.14171334  T        0
Si      23.67531233       9.28684241       4.84954646  T        0
Si      23.13863870       2.97494411       5.31967945  T        0
Si      17.33632511      11.01519672       3.03590110  T        0
Si      19.19384202       4.73767805       9.35780275  T        0
Si      15.16336659      10.97588818       5.27414022  T        0
Si      19.56919351      13.22238083       3.08279220  T        0
Si      23.07079901       5.23620667       3.08633823  T        0
Si      16.98545555       6.99999345       9.31061920  T        0
O       24.52460059       8.70068042       3.55162854  T        0
O       28.00942359       8.83990022       0.16836988  T        0
O       28.87689125       6.76191519       1.74612239  T        0
O       26.20667827       6.72876911       4.39696569  T        0
O       24.73217054       9.90340442       5.95613165  T        0
O       26.34613644       7.73054750       1.86154938  T        0
Si      27.62048496       7.39906658       0.88405199  T        0
Si      25.36940478       7.36362576       3.12114524  T        0
O       28.01161326       5.92884509      -2.80300434  T        0
O       24.63745960       2.39397420      -2.72130393  T        0
O       26.21749326       1.71687653      -0.63554580  T        0
O       28.91950587       4.38724959      -0.70920427  T        0
O       27.21717271       6.27620359      -0.23190293  T        0
O       24.32171339      -0.17865768      -3.52686250  T        0
O       26.43590259       4.16519313      -1.79852835  T        0
Si      27.63957207       5.18545886      -1.37680630  T        0
Si      25.40831305       2.96237310      -1.36927828  T        0
O       18.09858286       2.47834642      -3.56170570  T        0
O       20.83327170       2.39144539      -6.26288849  T        0
O       14.84814220       6.45820184      -3.71940424  T        0
O       20.03282623       0.77902991      -4.30760696  T        0
O       22.60275690       0.93440864      -1.75868492  T        0
O       13.61816687       4.50301119      -4.99147579  T        0
O       18.86888905       1.86572272      -8.07321020  T        0
O       16.40358344       1.75423376      -5.54699012  T        0
O       24.35257625       3.48841659      -0.28528370  T        0
O       15.63009054      12.38750008       0.09738778  T        0
O       18.22009896      -0.00968161      -2.43792767  T        0
O       21.87826862      -0.12317881      -6.07270418  T        0
O       15.53017678       5.97614513      -6.29977697  T        0
O       18.35156058       3.44370936      -6.06127673  T        0
O       20.01083588       1.72097950      -1.79865583  T        0
O       22.57289272       1.65096170      -4.30988522  T        0
O       20.15648713       4.30723253      -7.91114290  T        0
O       16.29094082       4.24229577      -4.49320798  T        0
Si      19.07262910       1.24693581      -3.06522836  T        0
Si      21.31776978       1.18614175      -5.25670680  T        0
Si      23.56076494       1.20627138      -3.07497894  T        0
Si      15.06986896       5.28950693      -4.87225042  T        0
Si      19.55241010       3.00999960      -7.09547899  T        0
Si      21.28025498       1.26768065      -0.86798057  T        0
Si      17.28558969       2.99938418      -4.90436525  T        0
O       22.55434867      -1.91652434       0.61577925  T        0
O       24.30415531      -0.27534313       3.80413894  T        0
O       20.09993203      -1.85817731       1.91246330  T        0
Si      21.36881652      -0.99740028       1.31547638  T        0
H       11.67127885       9.33842242       1.81195952  F        0
H       15.43757911       5.57209275      10.38640946  F        0
H       14.01041460       9.33842077      -0.52721165  F        0
H       17.77043311       3.23924387      10.38640412  F        0
H       23.12591797       5.02704618       8.65412107  F        0
H       17.22544067      10.92750153       8.65411313  F        0
H       19.36965547      14.75328399       4.82834093  F        0
H       17.22544070       8.65411150      10.92750362  F        0
H       20.85245744       5.02708867      10.92752556  F        0
H       11.39908935      12.70105073       3.24464026  F        0
H       21.54216027      12.99764967       6.60187561  F        0
H       24.89951425       2.85451703       6.89840128  F        0
H       15.05290853      12.70105704       6.89848521  F        0
H       19.78591980      14.73191782       1.24430354  F        0
H       28.68412771       8.95914275      -0.52719976  F        0
H       29.22534432       7.17131743       2.55494170  F        0
H       26.95194123       7.17131746       4.82834527  F        0
H       25.19630608       9.34383456       6.60185911  F        0
H       28.68420928       6.62630035      -2.86021198  F        0
H       26.95192867       1.27083937      -1.07240246  F        0
H       29.22533941       3.54426653      -1.07238230  F        0
H       25.19622735      -0.50276655      -3.24494277  F        0
H       14.01033133       6.62630079      -3.23950641  F        0
H       13.46920992       3.54427607      -5.02735139  F        0
H       19.36968740       1.27081557      -8.65438303  F        0
H       15.74261410       1.27081536      -5.02730892  F        0
H       15.44299305      12.70103244      -0.79954860  F        0
H       17.49833355      -0.50278089      -2.85477948  F        0
H       21.54221652      -0.50278066      -6.89866328  F        0
H       15.44301081       6.89846591      -6.60212382  F        0
H       19.78593015       4.85484827      -8.63303166  F        0
H       23.12589418      -2.55519498       1.07214050  F        0
H       24.89950013      -0.79949361       3.24468082  F        0
H       19.54187317      -2.53384464       1.48839915  F        0
Fe      20.73504146       4.20063131       0.79504354  T        0
Fe      19.98090309       6.78575799       2.62964980  T        1
O       19.17416993       5.17141249       1.64012878  T        2
O       19.96539179       6.11082117       0.72595742  T        3
