138
Lattice="19.123 0.0 0.0 0.0 14.277 0.0 0.0 0.0 7.5465" Properties=species:S:1:pos:R:3:move_mask:L:1:tags:I:1 i=128 E=-2603.9155142701 regions="_JSON [\"Active\"]" n_terminators=32 energy=-930.0618741036005 pbc="F F F"
O       15.79474712       8.42052978       5.61647401  T        0
O       12.73408908       1.10993300       2.11528569  T        0
O       15.72431947       5.75800824       5.76361157  T        0
O       12.97904095      13.15290099       1.53180019  T        0
O       12.72674453      13.17459050       5.42690266  T        0
O       15.79233076       5.85154920       1.91322466  T        0
O       13.01725080       1.12115238       6.03011188  T        0
O       15.69227877       8.51616238       1.75878670  T        0
O       16.96024599      10.95702476       6.28574430  T        0
O       11.53789046       3.44792099       2.42604918  T        0
O       17.04401561       3.45676795       6.26305429  T        0
O       11.86424909      10.80021918       2.43524573  T        0
O       11.48395458      10.85309963       5.10708053  T        0
O       17.04395246       3.31583152       1.24809604  T        0
O       11.85984343       3.45612975       5.10153886  T        0
O       17.04732679      10.79981787       1.27061462  T        0
O       16.30454711      10.14305127       3.71446035  T        0
O       12.42742021       2.75675118      -0.03542660  T        0
O       16.31051899       4.13402574       3.81345009  T        0
O       12.70902557      11.17430700      -0.10429215  T        0
O       14.09284167      10.85923499       5.57197245  T        0
O       14.15378199       3.38247887       1.89621200  T        0
O       14.44702361       3.37337468       5.60789561  T        0
O       14.45287359      10.92088701       1.91726167  T        0
O       11.62019446       8.49413590       3.79444202  T        0
O       17.32442836       1.07039160      -0.27089152  T        0
O       11.60638062       5.78193888       3.76765846  T        0
O       17.33057186      13.15421556      -0.08483444  T        0
O        9.49676365      10.13277267       3.36683236  T        0
O        9.50006847       4.09984018       4.14014042  T        0
O       13.50357562       7.10535773       5.10023792  T        0
O       13.48956761       7.14773663       2.43625848  T        0
O       14.42487999       7.02699117      -0.06300981  T        0
Al      15.65686303      10.24058211       5.42200341  T        0
Si      12.73213396       2.68521359       1.57942310  T        0
Si      15.84863735       4.14961335       5.40293319  T        0
Si      12.97968738      11.50833372       1.47212454  T        0
Si      12.70423074      11.59242442       5.94040364  T        0
Al      15.71026594       4.01987761       2.08928525  T        0
Si      12.98582130       2.76656713       6.06630318  T        0
Si      15.84059496      10.11847944       2.12522450  T        0
Si      11.10484065      10.06789534       3.70654735  T        0
Si      17.59422898       2.71413349      -0.16137611  T        0
Si      11.11232593       4.20079508       3.82946249  T        0
Si      17.57920073      11.51466684      -0.12305865  T        0
Si      14.84299068       7.12795783       6.02726479  T        0
Si      14.82586496       7.13738171       1.50379697  T        0
Si      12.52885902       7.13351390       3.77388776  T        0
O       21.59674302      11.09645493       9.01643679  T        0
O       21.01859341      13.10063710       7.29642151  T        0
O       19.17709721       3.05795685       7.90324446  T        0
O       19.22611242      11.27282385       7.66264549  T        0
Si      20.86539950      11.48394177       7.57698585  T        0
O       22.55961190       8.30439231       5.32532666  T        0
O       21.56149143      10.63078888       6.33123311  T        0
O       22.23798453      10.46917747       3.75809325  T        0
O       24.22233559      10.30976553       5.70810506  T        0
O       19.20144138       2.99418593      -0.42648553  T        0
O       19.17989250      11.21595737      -0.36272930  T        0
Si      22.65317987       9.95536006       5.28474414  T        0
O       12.82156988       1.21489150       9.63479828  T        0
O       12.84304651      13.05516063       9.76363856  T        0
O       15.55062866       5.81798163       9.57978852  T        0
O       15.54205550       8.48718928       9.69730156  T        0
O       11.53056863       3.52272972       9.92566155  T        0
O       11.57287762      10.69765391       9.89861642  T        0
O       16.76169923       3.49684590       8.87662994  T        0
O       16.89692353      10.72015903       8.92018703  T        0
O       16.07708689      10.54987114      11.39230531  T        0
O       12.71746326       3.10623104       7.64100299  T        0
O       16.36341359       3.98265465      11.39916642  T        0
O       12.44274331      11.51066845       7.56238382  T        0
O       14.24747448       3.50238153       9.79852978  T        0
O       14.26375953      10.79017776       9.38741212  T        0
O       17.33482314       1.11573678       7.63494570  T        0
O       17.30244336      13.17931168       7.82829096  T        0
O       13.17028455       7.12639839       9.84146001  T        0
O       14.44269069       7.22694823       7.59551089  T        0
Si      12.85968854       2.82341489       9.25619615  T        0
Si      12.80613199      11.50981906       9.16688898  T        0
Si      15.71381832       4.21305863       9.90513833  T        0
Si      15.68971799      10.12710693       9.84786101  T        0
Si      17.57918415       2.75572388       7.66362050  T        0
Si      17.59054767      11.54700050       7.66047734  T        0
Si      14.69307260       7.16839345       9.21334804  T        0
O       15.54518224       8.45736866      -2.02635106  T        0
O       15.52645344       5.78707149      -2.17626753  T        0
O       12.81977732      13.06312210      -2.09710453  T        0
O       12.82582217       1.20741080      -2.23075193  T        0
O       16.76508672      10.77896747      -1.34101707  T        0
O       16.80928801       3.51916299      -1.37277737  T        0
O       11.53130237      10.75426447      -2.39629269  T        0
O       11.51822030       3.53588927      -2.38122830  T        0
O       16.36213159      10.28324221      -3.85606122  T        0
O       16.05471959       3.70778107      -3.85693162  T        0
O       14.24731984      10.77589076      -2.25588159  T        0
O       14.20061807       3.51009828      -1.89383420  T        0
O       13.16165373       7.16384533      -2.30961271  T        0
Si      15.71117714      10.06018333      -2.36175584  T        0
Si      15.64537866       4.14386076      -2.32401646  T        0
Si      12.85658319      11.45411426      -1.71958033  T        0
Si      12.76958846       2.75572970      -1.64447147  T        0
Si      14.68262106       7.10472745      -1.67897726  T        0
H       13.50938118       0.51971906       2.07492992  F        0
H       13.50958039      13.75682243       2.07498241  F        0
H       13.51084140      13.75504172       5.44776650  F        0
H       13.50975252       0.52161770       5.44778410  F        0
H       16.56036088       0.51548555      -0.00076213  F        0
H       16.56020813      13.76127004      -0.00066979  F        0
H        8.59739021      10.07362933       3.76217937  F        0
H        8.59637561       4.20354031       3.76204115  F        0
H       22.00483182      10.29715766       9.41435165  F        0
H       21.68557806      13.76129914       7.54737584  F        0
H       20.08726577       2.93486642       7.54597012  F        0
H       23.07126003       7.65296290       5.84570001  F        0
H       22.32036723      10.11759060       2.83883070  F        0
H       24.76092223      11.11473374       5.84604825  F        0
H       20.08726577       2.93486642      -0.00052988  F        0
H       20.08739461      11.34211663       0.00099186  F        0
H       13.50938118       0.51971906       9.62142992  F        0
H       13.50958039      13.75682243       9.62148241  F        0
H       11.39369377       3.98884644      10.77146895  F        0
H       11.39439525      10.28733182      10.77116771  F        0
H       15.92688062      10.11457984      12.25007275  F        0
H       15.92754156       4.15729643      12.25107281  F        0
H       16.56036088       0.51548555       7.54573787  F        0
H       16.56020813      13.76127004       7.54583021  F        0
H       12.88235039       7.13795337      10.76981689  F        0
H       13.51084140      13.75504172      -2.09873350  F        0
H       13.50975252       0.52161770      -2.09871590  F        0
H       11.39521725      10.28762784      -3.24237523  F        0
H       11.39412799       3.98861071      -3.24188863  F        0
H       15.92569105      10.11584057      -4.70878458  F        0
H       15.92661844       4.15901570      -4.70770176  F        0
H       12.88191441       7.13773895      -3.23957932  F        0
Fe      17.33181382       5.82883086       3.31508732  T        0
Fe      17.41116871       8.52857719       4.27145062  T        1
O       18.48087330       7.15013545       3.78118955  T        2
