150
Lattice="20.102 0.0 0.0 0.0 19.731 0.0 0.0 0.0 13.253" Properties=species:S:1:pos:R:3:move_mask:L:1:tags:I:1 i=77 E=-3472.0240129048 regions="_JSON [\"Active\"]" n_terminators=34 energy=-1018.6851844936301 pbc="F F F"
O        9.72956873       0.93236511       9.28978321  T        0
O        7.49664390       1.40012300      10.38325555  T        0
O       17.97507630       1.34273939       9.24192843  T        0
O        8.12519229       2.81423332       8.13821955  T        0
O        7.51020973       0.24297488       7.94441463  T        0
O        5.95203755       1.20719392      12.88980991  T        0
O       16.59247625       0.84911010       7.12316610  T        0
O        4.64409843       0.95108389      10.28522357  T        0
O       15.26647811       1.18905863       9.45170696  T        0
O       16.07484164       2.69058027       5.32694240  T        0
O       14.17468820       0.93747770       6.21964069  T        0
O       16.09765289       0.11441639       4.56660287  T        0
O       12.33852064       2.53857087       5.24205398  T        0
O       11.68289285       0.78039708       7.14054461  T        0
O        2.06275534       0.87783290       9.64920966  T        0
O       12.55840865       1.40303143       9.90231318  T        0
O        8.58817804       1.05294974       4.34324108  T        0
O        3.71929134       2.52909865       8.30451424  T        0
O       14.38624415       2.51204030      11.58135905  T        0
O       10.17045254       3.14545419       3.78075318  T        0
O       12.56223066       3.35069218       2.66148706  T        0
O       11.91204214       4.98472663       4.77326441  T        0
O        3.43689039       3.25420634       5.69021957  T        0
O        3.99679599       5.02469951       7.62115844  T        0
O       14.01023104       4.98367884      12.44671325  T        0
O        5.83518302       3.12364941       6.81319071  T        0
O       16.37582413       3.93872462      12.81259794  T        0
O        7.32040072       5.22838535       7.28303230  T        0
O        8.17239490       3.38035257       5.53104111  T        0
O        7.73775220       3.18024944       2.87693846  T        0
Si       8.20900410       1.37954496       8.89215800  T        0
Al       6.05322734       0.72504565      11.22881507  T        0
Si      16.61540413       0.58674950       8.72150389  T        0
Si      15.72650777       1.15087817       5.77127934  T        0
Si      12.59315502       1.05704868       5.85040716  T        0
Al      11.39590123       0.59583320       8.80930489  T        0
Si       3.59902977       1.08638504       9.07158398  T        0
Si      14.05738614       1.33529002      10.51403829  T        0
Si      11.73937254       3.50204204       4.08626832  T        0
Si       4.25854722       3.49045999       7.10671748  T        0
Si      14.76897821       3.56761564      12.77285058  T        0
Si       7.37890333       3.62414264       6.92571814  T        0
Si       8.65870587       2.66716471       4.13885656  T        0
O       13.30844448       0.89324623      15.69658054  T        0
O        5.24765100       2.57619873      15.11817027  T        0
O        3.76347661       0.51756848      14.34315921  T        0
O        6.10181232       0.02708219      15.33395448  T        0
O       12.62493501       3.45175175      16.16708804  T        0
O       14.25680045       2.91128284      14.17998312  T        0
O       15.14739931       2.44935371      16.68750538  T        0
Si       5.31723760       1.09986750      14.37389886  T        0
Si      13.83589430       2.44810458      15.68510429  T        0
O       12.63516085      -1.65288624      16.22223823  T        0
O       13.60358707      -0.94952551      13.76520066  T        0
O        5.00324483      -1.15799246      17.55597156  T        0
O       15.22883910      -1.08319757      15.64734903  T        0
O        7.49080414      -1.70100830      16.83086067  T        0
O        5.53398153      -2.59475090      15.29944680  T        0
O        5.93194599      -5.07726978      14.42665650  T        0
O        3.68508443      -3.92659707      13.79870761  T        0
Si      13.65784593      -0.67386313      15.39598501  T        0
Si       5.99075794      -1.33350818      16.24357252  T        0
Si       5.28048020      -3.61231907      14.05025182  T        0
O        9.94247908      -1.18219211       3.89802323  T        0
O       12.17501852      -1.44334114       2.47698262  T        0
O       11.89364244      -2.64809177       4.92686717  T        0
O       12.26761063      -0.02192916       4.67041610  T        0
O        3.55084548      -1.55730500       5.74751007  T        0
O        6.81688284      -0.93215375      11.24365945  T        0
O       16.66685867      -1.01662408       9.03751751  T        0
O       15.08951360      -1.01237351       2.34351930  T        0
O        3.60952532      -2.77281194       8.09265010  T        0
O       14.51874462      -2.63725653      11.92923521  T        0
O        5.82001341      -1.63366588       7.15598719  T        0
O       16.12023056      -0.49067832      12.65983105  T        0
O        3.81012580      -0.06732038       7.93190214  T        0
O       13.90014073      -0.11941196      11.37696616  T        0
O        8.17310946      -2.34779485       8.09138507  T        0
O        8.01045968      -1.14738099       5.72917325  T        0
O        7.41249906      -0.98830766       3.08570600  T        0
O       17.54694515      -1.65018255       3.11928825  T        0
O       11.61271200      -1.07909017       9.43854157  T        0
O       15.62514920      -2.52777121       4.61706152  T        0
O       10.05620056      -3.27554784       9.67071744  T        0
O        7.54208687      -3.36483757      10.50799843  T        0
O       17.84638669      -3.39226465       9.40510380  T        0
O        8.31387721      -4.95812037       8.44137941  T        0
O        6.03483370      -3.01745470      12.71692531  T        0
O       16.47824065      -2.94615539       7.14836732  T        0
O        4.96223854      -2.58972865      10.33230247  T        0
O       15.15742174      -3.15593219       9.40870826  T        0
O       15.92809549      -5.02967409       5.49557986  T        0
O       13.97240563      -3.44548921       6.46438027  T        0
O       11.89818789      -5.08133347       5.87143059  T        0
O       11.66974939      -2.99658151       7.57970392  T        0
O        2.39140456      -3.45903434      10.41039945  T        0
O       12.63016564      -3.39014160      10.11169892  T        0
O        4.42479837      -4.99085523       9.51926850  T        0
O       14.40760058      -5.11153459      11.13361139  T        0
Si      11.56057082      -1.32626848       4.01771600  T        0
Si       4.20061742      -1.49068514       7.25894415  T        0
Si      14.62092972      -1.11702132      12.49432017  T        0
Si       7.38246555      -1.21737039       7.22393538  T        0
Si       8.47058236      -0.57274237       4.26903935  T        0
Si      16.05450371      -1.25797545       3.67272420  T        0
Si       8.50428827      -3.50833628       9.18738310  T        0
Si       6.33387295      -2.50452198      11.21152084  T        0
Si      16.54887274      -2.61700563       8.74321383  T        0
Si      15.51392529      -3.49556840       5.92661922  T        0
Si      12.36799409      -3.54030518       6.20032450  T        0
Si      11.49171073      -2.68891539       9.15940024  T        0
Si       3.81274501      -3.46873387       9.56729325  T        0
Si      14.16885616      -3.57426511      10.61729937  T        0
H       18.28958667       1.43588107      10.15436837  F        0
H       16.07046275       3.06180759       4.42856956  F        0
H        1.92726146       1.06764952      10.59110356  F        0
H       13.35632229       2.80449888       2.51220488  F        0
H       11.61525895       5.84615817       4.45233654  F        0
H        3.68470477       2.53683452       5.08310689  F        0
H        4.37526294       5.84706860       7.26036481  F        0
H       14.42640568       5.84706861      12.61908764  F        0
H       17.11292418       3.38174117      13.10695602  F        0
H        7.92514400       5.84771651       6.85279547  F        0
H        6.78202891       3.33840099       2.93525138  F        0
H        6.01932000       3.06180763      15.45091456  F        0
H        3.12887898       0.94105847      13.74983427  F        0
H       12.10039016       3.38484891      16.98641506  F        0
H       15.83774431       3.12895724      16.63016863  F        0
H       11.86384156      -1.43617684      16.78088422  F        0
H        4.05829635      -0.93431141      17.66371282  F        0
H       15.58095514      -1.34062803      16.50370227  F        0
H        8.12388129      -1.06794528      17.21761942  F        0
H        5.67587981      -5.84736437      13.88688066  F        0
H        2.98936131      -3.38203693      13.39901228  F        0
H       13.03074803      -0.98698471       2.26762503  F        0
H        3.46536401      -0.71595242       5.26900440  F        0
H       14.10943909      -0.93431140       2.21577134  F        0
H       16.97340650      -0.94135423      12.75613404  F        0
H        6.55301950      -1.44431996       3.13509397  F        0
H       18.17502403      -1.06794529       2.66186474  F        0
H       18.05303809      -3.38514467      10.35989921  F        0
H        8.48702655      -5.84645393       8.80063176  F        0
H       15.72702256      -5.84736437       5.99260349  F        0
H       12.17714150      -5.84801228       6.40017283  F        0
H        1.73086688      -2.74256168      10.35624453  F        0
H        4.05997682      -5.86251935       9.28699688  F        0
H       14.11111956      -5.86251936      10.59245558  F        0
Fe       8.75413248      -0.07418739      11.24374877  T        0
Fe      11.84550996      -0.41139218      11.43971068  T        1
O       10.22972455      -0.44059956      12.24496733  T        2
