133
Lattice="19.123 0.0 0.0 0.0 14.277 0.0 0.0 0.0 7.5465" Properties=species:S:1:pos:R:3:move_mask:L:1:tags:I:1 i=128 E=-2603.9155142701 regions="_JSON [\"Active\"]" n_terminators=32 energy=-888.07336116706 pbc="F F F"
O       15.55596076       8.79306746       6.20575291  T        0
O       12.87357476       1.33784199       1.58953815  T        0
O       15.57966402       6.11019141       5.70977967  T        0
O       15.62333189       5.85258621       1.71191241  T        0
O       12.90259909       1.23518892       5.72177818  T        0
O       15.91698845       8.44444846       1.85179178  T        0
O       11.64805387       3.59510569       2.41205295  T        0
O       17.04191256       3.51347707       6.17154646  T        0
O       16.82747004       3.50840148       1.18645643  T        0
O       11.59753298       3.47727668       5.10300093  T        0
O       12.53058851       3.43662467      -0.10157631  T        0
O       16.20278326       4.09088578       3.70461951  T        0
O       14.26883231       3.56670335       1.95639195  T        0
O       14.19507651       3.55929771       5.82901270  T        0
O       11.30890696       8.40660262       3.63095850  T        0
O       17.00270926       1.30898332      -0.31916809  T        0
O       11.80825758       5.83236897       3.84291642  T        0
O        9.49496072       4.60340029       3.75731032  T        0
O       13.39961764       7.56923042       5.13270088  T        0
O       15.43152894      -0.00446486       1.38603924  T        0
O       15.25404843       0.04861149       6.28143407  T        0
O       13.51067725       7.36390966       2.46656184  T        0
O       14.23089030       7.37817457      -0.05850514  T        0
O       14.34824630       0.01719287       3.79465234  T        0
Si      12.82180809       2.94733369       1.46325361  T        0
Al      15.63544369       4.41028638       5.41833388  T        0
Si      15.72070372       4.27404586       2.12633088  T        0
Si      12.77176987       2.85295809       6.07584823  T        0
Si      17.53557156       2.87429625      -0.15799165  T        0
Si      11.11914852       4.34590850       3.78278121  T        0
Si      14.68228614       7.38437213       6.15020186  T        0
Al      13.72914294      -0.08230400       2.06818308  T        0
Si      13.87612894      -0.02194355       5.39365981  T        0
Si      14.81130653       7.26364777       1.48719534  T        0
Si      12.51935018       7.29736846       3.78127609  T        0
Si      16.17499685      -0.09140151      -0.10288751  T        0
O       21.17983752       3.67456323       8.98914710  T        0
O       21.35708864       1.25882752       7.74582617  T        0
O       19.19760104       2.83741406       7.54087212  T        0
O       23.69151254      -0.00326980       8.44273651  T        0
Si      20.85460282       2.82663245       7.60864238  T        0
Si      22.32951805      -0.03774315       7.49483898  T        0
O       22.42182736       5.90289769       5.68172507  T        0
O       22.42268574       5.89473544       1.77332279  T        0
O       21.55999635       3.46890216       6.26448083  T        0
O       21.55635004       3.46660846       1.23762678  T        0
O       22.50894543       3.99066514       3.74638367  T        0
O       24.21227408       3.96270620       1.61693790  T        0
O       24.21554140       3.97294315       5.87554986  T        0
O       20.91279403       1.10673569       0.03558392  T        0
O       19.16492891       2.98013661      -0.02959525  T        0
O       22.89953582       0.02622500       5.94610013  T        0
Si      22.66590441       4.30305629       5.36370550  T        0
Si      22.66565495       4.30251470       2.13069044  T        0
Si      20.80949798       2.75698152      -0.05243840  T        0
O       21.44080289       3.25217033      -1.50285220  T        0
O       21.59770524      -4.02760459       8.53025963  T        0
O       21.45547464      -1.41160268       7.73245933  T        0
O       19.24471683      -2.94520221       7.66564064  T        0
Si      20.88381353      -2.94675721       7.50169059  T        0
O       21.21417512      -3.49135741       5.97683409  T        0
O       19.16871952      -3.24726417       0.17175199  T        0
O       17.05983563       3.85239858       8.87939193  T        0
O       12.24561214       2.99231967       7.64775513  T        0
O       16.94294313       1.36142739       7.82983241  T        0
O       15.19053998      -0.43678906       8.97566504  T        0
O       14.05995399       7.19012502       7.67607721  T        0
Si      17.55348178       2.88185858       7.62734831  T        0
Si      16.13319647      -0.05569245       7.66624006  T        0
O       17.12016944       3.73352133      -1.51319620  T        0
O       15.04839862      -0.44892359      -1.26496671  T        0
O       17.09169091      -3.65736236       9.04095644  T        0
O       12.37460320      -3.21222208       7.61146492  T        0
O       17.14636518      -1.32886457       7.58793532  T        0
Si      17.60078580      -2.91177366       7.65199373  T        0
O       15.90125264      -5.97753062       5.79777711  T        0
O       12.97870631      -1.58168819       1.71166224  T        0
O       13.09085979      -1.41496800       5.70281345  T        0
O       15.89008913      -6.04194379       2.01155624  T        0
O       17.03029345      -3.65370189       6.29627682  T        0
O       11.63997041      -3.82969747       2.36550280  T        0
O       11.90152904      -3.70532577       5.04512028  T        0
O       16.81304648      -3.61299953       1.29979536  T        0
O       16.05007246      -4.09577073       3.82940362  T        0
O       12.48741947      -3.49487775      -0.14698581  T        0
O       14.40784832      -3.72607126       5.91810079  T        0
O       14.22096659      -3.94903917       1.86598566  T        0
O       11.31711087      -6.07619376       3.85924103  T        0
O       17.18803249      -1.37718245      -0.10613024  T        0
O        9.51778957      -4.08104029       4.08100238  T        0
Si      15.83194675      -4.36854268       5.43940058  T        0
Si      12.83502261      -3.16300758       1.44504759  T        0
Si      12.94992290      -3.00646740       6.07536414  T        0
Si      15.73446738      -4.41308310       2.24144734  T        0
Si      11.10014015      -4.42910517       3.80213568  T        0
Si      17.55559356      -2.98956618      -0.03357697  T        0
O       17.09503905      -3.76955743      -1.42501648  T        0
H       15.75671561       9.37610020       5.45468838  F        0
H       15.75699573       9.38061947       2.07980242  F        0
H       12.76076393       2.97683097      -0.93375646  F        0
H       11.31595404       9.37380971       3.76235534  F        0
H        8.59637561       4.20354031       3.76204115  F        0
H       14.60982961       7.13673871      -0.92783774  F        0
H       22.00636260       3.98381786       9.40800429  F        0
H       23.80717611       0.00053719       9.40943871  F        0
H       23.07136830       6.61169953       5.84807952  F        0
H       23.06898247       6.62073046       1.68518482  F        0
H       24.75935035       3.15857028       1.68481677  F        0
H       24.75385446       3.15950316       5.84781029  F        0
H       21.68544240       0.51556882       0.00084209  F        0
H       23.83786620      -0.00082127       5.68998115  F        0
H       21.98145514       3.97853683      -1.88343379  F        0
H       22.00483182      -3.97984234       9.41435165  F        0
H       22.00608000      -3.98797095       5.68686433  F        0
H       20.08739461      -2.93488337       0.00099186  F        0
H       16.24121950       3.98053732       9.41400179  F        0
H       12.76321398       2.97604733       8.47995589  F        0
H       14.43595606      -0.00016978       9.40393244  F        0
H       14.61405599       7.13800201       8.47661577  F        0
H       16.23925818       3.97887666      -1.85852020  F        0
H       14.44051635       0.00152190      -1.88177140  F        0
H       16.24088130      -3.98173953       9.41338238  F        0
H       12.76333233      -2.97624889       8.47967776  F        0
H       15.17320598      -6.62175386       5.84596239  F        0
H       15.17712900      -6.61799919       1.68693573  F        0
H       12.76174962      -2.97771999      -0.93393629  F        0
H       12.12595522      -6.62290057       3.76264176  F        0
H        8.59739021      -4.20337067       3.76217937  F        0
H       16.24044124      -3.98714965      -1.86101282  F        0
Fe      16.26995087       0.46974106       3.21491652  T        0
Fe      17.94823850       3.08504677       4.31622795  T        0
O       17.70745263       1.31240789       3.91575348  T        0
O       19.35231705       3.92753957       3.94554367  T        0
