135
Lattice="19.123 0.0 0.0 0.0 14.277 0.0 0.0 0.0 7.5465" Properties=species:S:1:pos:R:3:move_mask:L:1:tags:I:1 i=128 E=-2603.9155142701 regions="_JSON [\"Active\"]" n_terminators=32 energy=-907.7274634571663 pbc="F F F"
O        6.07331599       1.12573889       1.46899967  T        0
O       15.76349085       8.42792569       5.80744486  T        0
O       13.20619322       1.06165235       1.33056972  T        0
O        3.54570495       8.49072145       5.83000059  T        0
O        6.03949394      13.14515177       1.45218670  T        0
O       15.80010111       5.75979965       5.88685587  T        0
O       12.86909536      13.03473359       1.91133408  T        0
O        3.40152199       5.82082124       5.78848901  T        0
O       13.38601568      13.19139950       6.23146116  T        0
O        3.40563898       5.79290006       1.73499250  T        0
O        6.10444901      13.15940779       6.05847579  T        0
O       15.49807867       5.81932733       1.79448510  T        0
O       13.25769235       1.10189165       6.19098370  T        0
O        3.40307945       8.48198045       1.70219455  T        0
O        6.16442659       1.31284367       5.26079455  T        0
O       15.67204900       8.49661190       1.76599803  T        0
O        7.10728202       3.44680493       2.52130280  T        0
O       17.23548598      10.65994972       6.16210872  T        0
O       11.96686197       3.36901576       2.19188793  T        0
O        1.94643148      10.64204646       6.17327898  T        0
O        7.16392284      10.85869206       2.46564927  T        0
O       17.20349688       3.46566084       6.10296493  T        0
O       11.93925270      10.51712530       2.13503273  T        0
O        1.98408578       3.51542671       6.09259530  T        0
O       12.05215848      11.17260438       4.98497309  T        0
O        1.93193742       3.54541396       1.42912935  T        0
O        7.17382445      10.83347783       5.09005584  T        0
O       17.17565952       3.83431898       1.23296738  T        0
O       11.94209029       3.21609481       5.05085111  T        0
O        1.92716513      10.72957205       1.43064500  T        0
O        7.26612430       3.66492086       5.18083675  T        0
O       17.22321946      10.66858927       1.40233660  T        0
O        6.68088532       3.22287761      -0.04508866  T        0
O       16.19915645      10.12957127       3.80564288  T        0
O       13.06919390       3.09585303      -0.25829734  T        0
O        2.99770115      10.11516053       3.78424922  T        0
O        6.61568373      11.00225775      -0.04273778  T        0
O       16.24640373       4.19235525       3.76129745  T        0
O       12.95608444      11.28571084      -0.19052105  T        0
O        3.09267017       4.08691362       3.77366542  T        0
O        4.59066119       3.37717302       1.68235773  T        0
O       14.55328016      10.81007340       5.82582828  T        0
O       14.61256222       3.27672558       1.88386312  T        0
O        4.59059034      10.96358437       5.76480029  T        0
O        4.59093446      10.89550106       1.77773965  T        0
O       14.52380291       3.41614368       5.67787391  T        0
O       14.58517432      10.95231744       1.85521805  T        0
O        4.67593235       3.49219755       5.89018655  T        0
O       11.63951861       8.48386311       3.88881143  T        0
O        7.46784351       8.52839175       3.76604255  T        0
O       11.58718020       5.82889700       3.72714949  T        0
O        7.61669148       5.89401180       3.62309366  T        0
O        9.45811253      10.31174642       3.75435391  T        0
O        9.48123991       4.22652923       3.57435385  T        0
O       13.63082567       7.01951632       5.03507998  T        0
O        5.69349025       7.02319700       5.12612977  T        0
O        5.58826625       7.14480665       2.45135173  T        0
O       13.32612195       7.35174207       2.34198026  T        0
O       14.13950193       7.28214399      -0.08747912  T        0
O        4.95752487       7.10523280      -0.06479316  T        0
Si       6.08416983       2.77402357       1.42130659  T        0
Si      15.91169256      10.01958937       5.42187767  T        0
Si      13.16365826       2.71844680       1.32882256  T        0
Si       3.28088845      10.05836367       5.40004430  T        0
Si       6.07890507      11.48979509       1.43157153  T        0
Si      15.91770597       4.19761021       5.37503279  T        0
Si      13.10007781      11.47521880       1.42939770  T        0
Si       3.29358994       4.22863797       5.39446382  T        0
Si      13.11674059      11.55829692       6.13112324  T        0
Si       3.26140861       4.20760962       2.14460016  T        0
Si       6.10014470      11.50460285       6.11095097  T        0
Si      15.87684280       4.24919273       2.16622889  T        0
Si      13.07356951       2.75130964       6.10066291  T        0
Si       3.24354087      10.05652741       2.16176771  T        0
Si       6.14031296       2.78188990       6.02328035  T        0
Si      15.91530380      10.06738072       2.20395073  T        0
Al      11.19459580      10.22724778       3.83916347  T        0
Si       7.85570973      10.14889645       3.76786181  T        0
Al      11.31413619       4.02478130       3.66817158  T        0
Si       7.84399457       4.21048776       3.75194204  T        0
Si      14.87615153       7.08867386       6.10735503  T        0
Si       4.37339623       7.10748101       6.10089002  T        0
Si       4.30128375       7.13713624       1.44270955  T        0
Si      14.72725659       7.20342926       1.45272856  T        0
Si      12.55939701       7.14118223       3.83872974  T        0
Si       6.54858299       7.19203912       3.75399329  T        0
O        6.58551591       2.59756262       7.60049694  T        0
O       12.59945283       3.30254614       7.58019931  T        0
O        6.61996148      11.01325711       7.59077455  T        0
O       12.50865094      11.04843505       7.57616598  T        0
O       14.18650669       7.13028653       7.59954279  T        0
O        4.98292901       7.02849780       7.63046787  T        0
O       12.88914572      13.01985915      -2.28276188  T        0
O       12.92280573       1.27551934      -2.31944761  T        0
O       11.88007986      10.49467074      -2.41321253  T        0
O       11.82408496       3.74011571      -2.40313991  T        0
O       14.61399047      11.03440930      -2.33956804  T        0
O       14.56787639       3.35512504      -2.49661323  T        0
Si      13.09106581      11.44474216      -1.82270578  T        0
Si      13.10784158       2.85754550      -1.87264774  T        0
H        5.61083456       0.52083913       2.07985367  F        0
H       13.50938118       0.51971906       2.07492992  F        0
H        5.61112307      13.75835362       2.07975607  F        0
H       13.50958039      13.75682243       2.07498241  F        0
H       13.51084140      13.75504172       5.44776650  F        0
H        5.62495998      13.75277707       5.44935724  F        0
H       13.50975252       0.52161770       5.44778410  F        0
H        5.62509051       0.52255101       5.44942550  F        0
H       17.28974254      11.12548174       7.01862795  F        0
H        1.83343022      11.12554006       7.01950242  F        0
H       17.28979000       3.14560285       7.02339196  F        0
H        1.81954193       3.15353441       6.98813474  F        0
H        1.83183800       3.14857954       0.53722786  F        0
H       17.29134854       3.14797220       0.53999843  F        0
H        1.83154049      11.12909684       0.54034962  F        0
H       17.29120144      11.12876736       0.54010345  F        0
H        6.35952436       2.97904956      -0.93427223  F        0
H        6.36236324      11.29726414      -0.93275871  F        0
H       14.60982961       7.13673871      -0.92783774  F        0
H        4.51175007       7.13509558      -0.92932085  F        0
H        6.35949513       2.97597070       8.47938261  F        0
H       12.76321398       2.97604733       8.47995589  F        0
H        6.35946036      11.30224636       8.48133548  F        0
H       12.76333233      11.30075111       8.47967776  F        0
H       14.61405599       7.13800201       8.47661577  F        0
H        4.50898861       7.14016697       8.47499567  F        0
H       13.51084140      13.75504172      -2.09873350  F        0
H       13.50975252       0.52161770      -2.09871590  F        0
H       11.39521725      10.28762784      -3.24237523  F        0
H       11.39412799       3.98861071      -3.24188863  F        0
H       15.19994748      10.29594087      -2.09275354  F        0
H       15.19955093       3.97637223      -2.09238403  F        0
Fe       9.65922192       6.25548558       2.78775837  T        0
Fe      11.49922633       8.55809998       1.61727169  T        1
O       10.14437442       7.36164850       1.39977336  T        2
