139
Lattice="24.397 0.0 0.0 0.0 24.397 0.0 0.0 0.0 24.397" Properties=species:S:1:pos:R:3:move_mask:L:1:tags:I:1 i=41 E=-6943.8331748197 regions="_JSON [\"Active\"]" n_terminators=30 energy=-946.3486766025692 pbc="F F F"
O        9.47368644      14.61043081      -0.19624050  T        0
O       14.90627102      20.85130584       6.28422089  T        0
O        9.65198372      18.36447197       3.58749566  T        0
O       18.50779850      20.70492067       2.60113251  T        0
O        9.70558827      11.99914173       2.59425159  T        0
O        5.80203209      21.72302968       3.64269359  T        0
O        9.76275986      15.66637074       6.32619151  T        0
O       12.15599034      20.87784351       3.51071303  T        0
O       15.78618567      20.86029850      -0.05238289  T        0
O       11.40590225      13.90874536       1.93082121  T        0
O       12.86044589      20.11852319       7.96481000  T        0
O       10.34621411      17.70153777       8.04182303  T        0
O       10.35222828      20.18797944       5.38323435  T        0
O        7.79050898      22.74268833       5.14137975  T        0
O       16.49464564      19.12464973       1.89363771  T        0
O       10.37121990      10.26531921       0.58673621  T        0
O       11.28866824      16.35718998       4.29696928  T        0
O       14.21408411      18.92281968       4.61345163  T        0
O       20.24235189      20.14811984       0.58921883  T        0
O       12.15781866      12.01397597       3.76109709  T        0
O       12.38671174      21.77512480       6.02126270  T        0
O        8.72634468      18.17043561       6.08166414  T        0
O        6.15305583      20.88331957       6.22943719  T        0
O       18.31468640      18.19135619       3.65477921  T        0
O        8.67215764      12.08532523       0.05214901  T        0
O       12.27416816      14.63002305       6.13531185  T        0
O       12.18991907      18.20844312       2.62558462  T        0
O       16.06616736      18.42037661       6.49300011  T        0
O       18.28028571      21.80158489       0.13796875  T        0
O       10.46407918      16.64331764       1.68313522  T        0
O       14.12434796      22.60258329       7.96301811  T        0
O        7.85674647      20.14500550       4.44356906  T        0
O       10.39061047      22.67549023       4.39574023  T        0
O       16.65145995      20.02373403       4.43359048  T        0
O       10.43796665      13.83663718       4.43632758  T        0
O        7.90739050      16.37868807       7.96575163  T        0
O       14.03010694      20.10112457       1.82985768  T        0
O       20.18033965      22.57289644       1.92739022  T        0
O        7.94868877      10.26650134       1.95001049  T        0
Al      10.76327027      15.08781456       0.84742457  T        0
Si      13.56396677      21.33204932       7.08962947  T        0
Si       9.12622033      19.21426317       4.89367491  T        0
Si       9.12443721      23.64138275       4.82455080  T        0
Si      17.51001179      19.52297570       3.13473981  T        0
Si      10.94035238      12.93846470       3.13907748  T        0
Si       6.88203640      21.40467907       4.85398254  T        0
Si       9.18082337      16.98060436       7.12009587  T        0
Si      11.31322308      21.40127035       4.85453851  T        0
Si      15.30447262      19.62509229       0.89856781  T        0
Si       9.17200701      11.15249241       1.29674960  T        0
Si      10.93307412      15.11482288       5.31890249  T        0
Al      13.25869998      19.44029625       3.31389862  T        0
Si      15.45627300      19.54608683       5.45650474  T        0
Si      10.84235425      17.35711966       3.10398113  T        0
Si      19.32149312      21.31499113       1.30852303  T        0
O        8.79372507      24.69025747       3.58973039  T        0
O        9.68050823      24.39370534       6.17423286  T        0
O       15.83187410      24.72279057      -3.41472355  T        0
O       18.40457791      24.36854592      -2.54364523  T        0
O       14.80147397      12.01902887      -2.41505853  T        0
O       15.85664299      21.72239439      -6.43106298  T        0
O        6.03771788      14.77438051      -3.48196743  T        0
O       15.79065698      18.37090031      -2.54216585  T        0
O       12.17042438      14.70146802      -2.56919755  T        0
O        8.83873208      14.79015442      -6.46426978  T        0
O       18.47208705      15.70660526      -2.42951549  T        0
O       14.04599692      14.00904279      -0.79843622  T        0
O       17.32660143      22.73922546      -4.42577272  T        0
O        7.91524043      13.15479491      -4.59337815  T        0
O       16.52414235      16.46884137      -0.78741091  T        0
O       12.80260249      10.27911209      -1.83552382  T        0
O       10.26015996      12.85663229      -2.01744821  T        0
O       17.61809656      20.19098364      -1.87822896  T        0
O       20.21675373      17.70072915      -1.82902148  T        0
O       12.15141614      15.79677319      -0.12711915  T        0
O       15.83711914      12.18927601       0.09875418  T        0
O       18.42743624      20.87225291      -6.04926856  T        0
O        5.97304090      12.00766828      -3.47465218  T        0
O        9.84333405      12.24654562      -6.27798571  T        0
O       18.32737322      14.64331658       0.07722965  T        0
O       14.78761895      18.35354693      -0.03242373  T        0
O       12.35056110      12.21723096      -3.52302373  T        0
O       18.28265176      18.18056890      -3.50008467  T        0
O       16.54940162      13.95276086      -1.70048690  T        0
O       14.13530338      10.29617119      -4.25944416  T        0
O       16.62654772      20.13947999      -4.35862974  T        0
O        7.67988103      13.50903953      -1.92093060  T        0
O       14.02812777      16.51803795      -1.78670555  T        0
O       10.48532549      13.94034602      -4.46033505  T        0
O       16.62012920      22.66797792      -1.82250094  T        0
O       20.18209301      16.37889080      -4.26625082  T        0
Si      15.29489380      13.01493322      -1.21325201  T        0
Si      17.04788020      21.39887028      -5.32968795  T        0
Si       6.89293706      13.36657947      -3.34082379  T        0
Si      15.30754674      17.42304428      -1.30708469  T        0
Si      13.11027006      15.22559723      -1.34955588  T        0
Si       9.24281121      13.53905010      -5.45661775  T        0
Si      17.03647332      23.63758335      -3.08462720  T        0
Si      17.49112637      15.20382740      -1.21881779  T        0
Si      11.30307169      13.41571429      -3.14092352  T        0
Si      17.09333944      21.39715788      -0.90702250  T        0
Si      19.30976340      16.99664654      -3.01667428  T        0
Si       9.02660277      13.28595158      -1.00728916  T        0
Si      13.51399154      11.18424358      -3.01948186  T        0
Si      17.09332078      19.22047758      -3.08725528  T        0
H        5.57209901      22.58475209       3.23920925  F        0
H       13.27046745      19.56837449       8.65412958  F        0
H       10.92750145      17.22544079       8.65411313  F        0
H       10.92752655       9.64346076       1.07209470  F        0
H       20.85246702      19.56839425       1.07212032  F        0
H       12.70105063      11.39908942       3.24464026  F        0
H        5.29989873      21.15211322       6.60185973  F        0
H       19.09683476      17.79487503       3.24462109  F        0
H       12.70105695      15.05290863       6.89848520  F        0
H       15.44301084      17.79487314       6.89846715  F        0
H       13.68673605      23.15239550       8.63276462  F        0
H        7.34350493      16.80917637       8.63275504  F        0
H       20.83112530      23.15241223       1.48839475  F        0
H        7.34352333       9.66479174       1.48837704  F        0
H        7.91116176      24.92409770       3.23921137  F        0
H        9.34383450      25.19630608       6.60185911  F        0
H       15.43756588      24.92408969      -4.28745700  F        0
H       18.80021526      25.19629522      -2.85480231  F        0
H       15.43758004      22.58476212      -6.62655944  F        0
H        5.57209393      15.05833723      -4.28746901  F        0
H        7.91114242      15.05832763      -6.62654864  F        0
H       13.27048028       9.64343273      -1.27111845  F        0
H       20.85247350      17.22542539      -1.27111836  F        0
H       15.44303658      11.39914474       0.50251735  F        0
H       18.80021053      21.15208141      -6.89875154  F        0
H        5.29990407      11.69569909      -2.85482259  F        0
H        9.34382502      11.69567665      -6.89874716  F        0
H       19.09678362      15.05286173       0.50248505  F        0
H       13.68673308       9.66480596      -4.85513656  F        0
H       20.83112308      16.80913882      -4.85512183  F        0
Fe      12.03433701      20.81733975       1.41679224  T        0
Fe      12.01142947      17.71173197       0.50417082  T        1
O       11.91805308      19.54730277      -0.20900529  T        2
O       10.67327168      20.22369938       0.22734048  T        3
