142
Lattice="20.102 0.0 0.0 0.0 19.731 0.0 0.0 0.0 13.253" Properties=species:S:1:pos:R:3:move_mask:L:1:tags:I:1 i=77 E=-3472.0240129048 regions="_JSON [\"Active\"]" n_terminators=30 energy=-978.7634543453906 pbc="F F F"
O       10.08422453       8.65682189       9.37847067  T        0
O       10.13713433      11.25853814       4.39589291  T        0
O        2.15625814      11.36534586       4.00760504  T        0
O        7.67961953       8.42928029      10.53960506  T        0
O       12.12696722      11.04134616       2.57613203  T        0
O        8.22014552       7.08208791       8.33010271  T        0
O       11.78671578      16.85853915       4.78504259  T        0
O       12.27236620      12.61666983       4.76830862  T        0
O        7.90525774       9.73004251       8.26168265  T        0
O       12.43035731       9.96559210       5.02969124  T        0
O        3.45648376      10.68940410       6.18936748  T        0
O        6.53989952       8.61435057      12.83456879  T        0
O        3.35301377       8.98412238       4.08161973  T        0
O        6.13670552      10.56826581      10.90792614  T        0
O       17.18058036      10.59681094       9.05708267  T        0
O       17.02713402      18.94379949       9.16845760  T        0
O        4.89106039      11.16196717       4.04971092  T        0
O        4.98222841       8.26660740      10.64854101  T        0
O        3.72960457      12.31843600       8.28007097  T        0
O        6.14369876       7.30688792       1.17951760  T        0
O       14.25519528      17.09247015      12.05203194  T        0
O       14.02962058      12.41147824      11.92575201  T        0
O        5.85282143      11.11895360       7.28950385  T        0
O        3.86295716       8.29441367       0.39575458  T        0
O       14.27563256       8.79101610       6.58325271  T        0
O        4.01886635       9.69541508       8.58964513  T        0
O        5.47291823       9.85395430       1.87085569  T        0
O        8.26945276      12.34933570       7.74258435  T        0
O        7.88355567      17.19252725       7.67328582  T        0
O       12.42217613       7.31196379       5.24901689  T        0
O        8.11070916      10.76982029       5.83727829  T        0
O       11.78429585       8.80000448       7.35694934  T        0
O        7.38994459      11.26975937       3.10143155  T        0
O        2.35588380       8.13827303      10.02247276  T        0
O       12.63218986       8.18681438       9.88398742  T        0
O        8.80369322       8.79600114       3.72428286  T        0
O       11.84949784      10.66578501       9.22401671  T        0
O       12.03046320      19.03582513       9.42113618  T        0
O        5.25881933      12.57171627       1.93805406  T        0
O        4.14927213       7.01869056       8.49222917  T        0
O       16.19673790      17.05552370       4.55062106  T        0
O       15.97867028      12.58919586       4.56567446  T        0
O        9.99299847      17.24024416       9.39013526  T        0
O       10.21351440      12.78912370       9.56270445  T        0
O       10.17082365       6.50412570       3.94961282  T        0
O        7.61293838      17.23044395      10.41241855  T        0
O        2.37983013       6.49502262       3.80587852  T        0
O        7.43748794      12.82842591      10.46385930  T        0
O       18.06088374      13.03961931       9.41095606  T        0
O       12.42882701       6.79106159       2.62681163  T        0
O       17.75570328      16.40588126       9.43571258  T        0
O        8.49756847      15.03630694       8.97774589  T        0
O       12.18864250       4.80594634       4.49757775  T        0
O        3.85389611       7.15426431       5.89168261  T        0
O        6.24782196      12.23591981      12.85259180  T        0
O       16.63379497      12.52214885       7.22463020  T        0
O       16.48905510      17.09584527       7.23724563  T        0
O        5.04322757       6.96909229       3.55028275  T        0
O        4.78256383      12.86310845      10.68787494  T        0
O       15.44213903      12.57534376       9.65304387  T        0
O       15.11735348      17.04722716       9.50001429  T        0
O        3.84019054       4.78582645       7.01795449  T        0
O       15.96195530      14.81092064       5.93427436  T        0
O        6.12872565       6.14965572       6.93188613  T        0
O       14.15735865      12.95059025       6.59049167  T        0
O       14.09206427      16.72834567       6.19095850  T        0
O        8.45466714       4.81528882       6.99418922  T        0
O       12.23052962      14.81681844       6.29223363  T        0
O        8.27693808       7.15984703       5.71180918  T        0
O       11.55136845      12.46859724       7.27715101  T        0
O       11.81445988      17.18147934       7.46684055  T        0
O        7.63426514       6.41636940       3.23742774  T        0
O        2.21583756      13.43543478      10.19161506  T        0
O       12.87577911      13.06957408       9.53920445  T        0
O       12.55728700      16.55912567       9.96544977  T        0
O        4.12898171      14.82979196       8.91834464  T        0
O        5.83215637       4.80115001       2.11388457  T        0
O       14.38813058      14.79810992      10.79224339  T        0
Si       8.48067277       8.47240347       9.12911091  T        0
Si      11.76117760      11.17385208       4.16165001  T        0
Si       3.47260502      10.54415094       4.56042772  T        0
Si       6.31884524       8.99357328      11.25724177  T        0
Si       4.25219512      10.94673907       7.58324441  T        0
Si       5.43391344       8.71870553       0.71678232  T        0
Si       7.44632510      10.96265193       7.32596791  T        0
Si      12.72109916       8.69805933       6.03301918  T        0
Al       8.51268260      10.43989875       4.12248318  T        0
Si      11.59968158       9.07396575       8.96637857  T        0
Si       5.82308184      11.22348191       2.70084341  T        0
Si       3.88502546       8.30960033       9.44076300  T        0
Si       8.47448639      16.63416755       9.11978125  T        0
Al       8.57283392      13.33600510       9.27337794  T        0
Si      11.78203720       6.34569532       4.08116686  T        0
Si       3.66083613       7.39784404       4.29556269  T        0
Si       6.18509892      12.17011262      11.20479410  T        0
Si      16.79260806      12.18131138       8.82513586  T        0
Si      16.57871280      17.38825224       8.84677291  T        0
Si       4.50973048       6.28373560       7.09131570  T        0
Si      15.70497636      13.20636861       6.06723739  T        0
Si      15.68363363      16.42618299       5.98252010  T        0
Si       7.74917841       6.30249710       6.98334640  T        0
Si      12.61644645      13.25724579       6.22578122  T        0
Si      12.49411901      16.43238105       6.20250067  T        0
Si       8.72186112       7.24593628       4.13758816  T        0
Si      11.59017760      12.25503622       9.00175524  T        0
Si      11.56175767      17.49418410       9.06113272  T        0
Si       6.16440099       6.36328380       2.53077599  T        0
Si       3.73314684      13.36358583       9.53959042  T        0
Si      14.19997350      13.20505933      10.49250035  T        0
Si      14.07184181      16.39373894      10.57139104  T        0
O        6.19961279       9.46906560      -0.53076411  T        0
H        1.81269882      11.30123319       3.09859993  F        0
H       13.03074804      10.85204106       2.26762503  F        0
H       11.77741499      17.76721957       4.45015374  F        0
H        6.01931354       8.91222751      13.59787507  F        0
H       16.64303307       9.81912404       8.84117322  F        0
H       16.64304187      19.77694965       8.84122497  F        0
H       14.40563884      18.04556895      12.19637069  F        0
H       14.40563885      11.55048737      12.19637067  F        0
H        3.12887899       8.92429365       0.49683426  F        0
H       15.03932990       8.88569483       5.99268334  F        0
H        7.69777211      18.11826613       7.44841170  F        0
H        1.92726146       8.79770260      10.59110356  F        0
H       13.54926599       8.42132791      10.11787432  F        0
H       11.52310955      19.83515307       9.21116341  F        0
H        5.53537813      12.95496052       1.09262639  F        0
H       15.87290964      17.87210703       4.12309272  F        0
H       15.87290964      11.72394929       4.12309273  F        0
H        6.74596320      16.92620537      10.74076342  F        0
H        2.04924741       6.48050321       2.89306910  F        0
H       18.05303808      13.25020103      10.35989921  F        0
H       13.35632228       7.06085325       2.51220488  F        0
H       18.05303809      16.34585533      10.35989921  F        0
H       11.61525895       4.01919395       4.45233654  F        0
H        5.86807409      12.98161584      13.33116226  F        0
H        4.37526294       4.01828352       7.26036481  F        0
H        7.92514400       4.01763560       6.85279547  F        0
H        1.73086689      12.60761804      10.35624453  F        0
H        4.05997682      15.72757570       9.28699687  F        0
H        5.99116592       4.00312854       2.66051272  F        0
H        6.58577874       9.14969547      -1.35751146  F        0
Fe       9.72199164      11.99377127       6.32233170  T        1
