136
Lattice="24.397 0.0 0.0 0.0 24.397 0.0 0.0 0.0 24.397" Properties=species:S:1:pos:R:3:move_mask:L:1:tags:I:1 i=41 E=-6943.8331748197 regions="_JSON [\"Active\"]" n_terminators=32 energy=-912.5759840822321 pbc="F F F"
O       21.70026050       2.59815385       0.07044104  T        0
O       21.81624312       6.19353189       3.52415396  T        0
O       15.70053050       9.81511327       6.24254844  T        0
O       20.82766403      12.34386045       3.66671583  T        0
O       21.92294225      -0.15070681       2.60286844  T        0
O       18.25595237       9.71588328       3.53628900  T        0
O       21.98276525       3.42113708       6.35945962  T        0
O       23.75926563       1.65075874       1.91055916  T        0
O       22.57495438       5.49010971       8.01275894  T        0
O       22.71632048       8.08017540       5.52429893  T        0
O       17.69616033      10.36624639       8.02086291  T        0
O       20.16609265      10.38644381       5.32369321  T        0
O       23.49617539       4.28068473       4.34132653  T        0
O       18.87047707      14.14754140       4.25907940  T        0
O       16.31174893      11.45049953       4.18659569  T        0
O       20.80363053       5.86828475       6.19747422  T        0
O       18.16277167       8.76422115       6.05282419  T        0
O       21.96212887      12.25258758       6.14418855  T        0
O       20.94373236       0.02225558       0.09875406  T        0
O       24.52504585       2.48861962       6.08095612  T        0
O       24.36926817       6.17170367       2.66295078  T        0
O       18.33029125      12.22434279       2.61803002  T        0
O       14.62423853      12.29666580       6.12039282  T        0
O       22.61930969       4.34779859       1.79532165  T        0
O       13.83605017      10.40459916       4.40998881  T        0
O       20.00354376       7.90538786       4.32671520  T        0
O       16.40291450       7.91956969       7.94947525  T        0
O       22.67732918      10.49149428       4.36603347  T        0
O       20.18498849      14.05017255       1.81758130  T        0
O       16.57543991      10.39210615       1.67605423  T        0
O       22.68676336       1.72729094       4.37439235  T        0
O       20.20412298       4.07501284       8.15864471  T        0
Al      23.32904273       2.95750096       0.88092172  T        0
Al      21.43249919       7.02680838       5.09219851  T        0
Si      16.97265394       9.20723936       7.09163493  T        0
Si      21.40245941      11.38488606       4.87058312  T        0
Si      23.19522145       0.76019424       3.13962831  T        0
Si      19.13284075       9.22918657       4.82903623  T        0
Si      21.36925054       4.71820674       7.17774604  T        0
Si      23.63733747       9.25686741       4.90024125  T        0
Si      23.16324553       2.98407380       5.30898430  T        0
Si      17.34230068      10.97918566       3.00478152  T        0
Si      15.13126604      10.99695959       5.24145937  T        0
Si      19.55882457      13.20860759       3.08466028  T        0
Si      23.09920201       5.24643056       3.09298757  T        0
O       24.51961053       8.67325514       3.62905917  T        0
O       26.34326683       6.70327226       4.23609270  T        0
O       24.66709110       9.90633583       6.01266737  T        0
O       26.20503254       7.96996726       1.77382145  T        0
Si      25.38305797       7.39722904       3.08222684  T        0
O       24.68051544       2.38628538      -2.71386740  T        0
O       26.31016861       1.82805647      -0.61633352  T        0
O       24.34090282      -0.16812040      -3.56256290  T        0
O       26.43990663       4.20177434      -2.02319581  T        0
Si      25.46563824       3.01841299      -1.40226947  T        0
O       12.04834469       3.57058733      -3.67727915  T        0
O       18.27372531       2.55428795      -3.56707219  T        0
O       20.87441329       2.41182859      -6.26748964  T        0
O       15.68653678      -0.17953469      -3.69305570  T        0
O       14.70370218       6.25146486      -3.72171927  T        0
O       12.75864743       8.08468140      -4.23092242  T        0
O       10.22883892       5.52590816      -4.23522307  T        0
O       20.12365395       0.76165398      -4.31364659  T        0
O       22.64196036       0.93383206      -1.77404220  T        0
O       13.95446677       4.29443911      -5.37987179  T        0
O       18.88167612       1.83172044      -8.03312486  T        0
O       16.45222129       1.77273686      -5.34929599  T        0
O       24.43444532       3.55805533      -0.28812589  T        0
O       12.23043588       6.06587325      -2.64935449  T        0
O       18.15813234       0.02650458      -2.64753959  T        0
O       21.95951096      -0.07445195      -6.13470303  T        0
O       12.13891344       2.42670656      -6.14417221  T        0
O       15.80747392       6.09096061      -6.20828468  T        0
O       18.39395015       3.46114399      -6.08461686  T        0
O       10.39450461       4.24895603      -1.78431472  T        0
O       20.04006863       1.67314722      -1.78941241  T        0
O       22.63087308       1.68183775      -4.33294568  T        0
O       14.04726826       7.90728728      -1.79456138  T        0
O       20.19961475       4.26584393      -7.97153826  T        0
O       16.45694674       4.30622647      -4.44184189  T        0
O       13.95848473       1.78580118      -4.40378028  T        0
Si      11.20874513       4.85383301      -3.08299758  T        0
Si      19.14300612       1.24829216      -3.09718907  T        0
Si      21.38055976       1.20164219      -5.27965788  T        0
Si      13.43332446       7.09112491      -3.09194764  T        0
Si      23.59643495       1.21752566      -3.09074067  T        0
Si      15.20834457       5.25295970      -4.92597566  T        0
Si      19.58848172       3.00552230      -7.10559910  T        0
Si      15.18981433       0.82184010      -4.90159211  T        0
Si      21.32860776       1.27073102      -0.87338088  T        0
Si      17.38817220       3.02986089      -4.86896599  T        0
Si      13.01329135       3.03604560      -4.89406235  T        0
O       22.53257074      -1.94529904       0.60692565  T        0
O       24.33575877      -0.23304003       3.79430807  T        0
O       20.08026883      -1.82986605       1.89459873  T        0
Si      21.37813450      -0.99581772       1.31517855  T        0
O       17.69979601      -1.94221076      -4.24842270  T        0
O       14.61460789      -0.04577344      -6.17279392  T        0
O       16.38342608      -1.86435345      -1.81582762  T        0
Si      16.97181904      -1.00755986      -3.09533864  T        0
H       23.12591797       5.02704618       8.65412107  F        0
H       17.22544067      10.92750153       8.65411313  F        0
H       19.36965547      14.75328399       4.82834093  F        0
H       21.54216027      12.99764967       6.60187561  F        0
H       24.89951425       2.85451703       6.89840128  F        0
H       15.05290853      12.70105704       6.89848521  F        0
H       13.44269068      10.71000821       3.56560630  F        0
H       16.80917625       7.34350499       8.63275504  F        0
H       19.78591980      14.73191782       1.24430354  F        0
H       15.76397041      10.70999753       1.24433830  F        0
H       19.54188528       4.61080343       8.63276969  F        0
H       26.95194123       7.17131746       4.82834527  F        0
H       25.19630608       9.34383456       6.60185911  F        0
H       26.93058105       7.58756876       1.24433203  F        0
H       26.95192867       1.27083937      -1.07240246  F        0
H       25.19622735      -0.50276655      -3.24494277  F        0
H       26.93057835       4.85486043      -1.48866112  F        0
H       13.27046744       8.65412799      -4.82862214  F        0
H        9.64344962       5.02707809      -4.82860290  F        0
H       19.36968740       1.27081557      -8.65438303  F        0
H       21.54221652      -0.50278066      -6.89866328  F        0
H       11.39908395       2.85457329      -6.60213759  F        0
H       15.44301081       6.89846591      -6.60212382  F        0
H        9.66481580       4.61081374      -1.24456550  F        0
H       13.68673601       8.63276314      -1.24460024  F        0
H       19.78593015       4.85484827      -8.63303166  F        0
H       23.12589418      -2.55519498       1.07214050  F        0
H       24.89950013      -0.79949361       3.24468082  F        0
H       19.54187317      -2.53384464       1.48839915  F        0
H       17.22541613      -2.55520754      -4.82860724  F        0
H       15.05289904      -0.79957238      -6.60212108  F        0
H       16.80916483      -2.53384737      -1.24459400  F        0
Fe      19.99615149       6.77585758       2.66528360  T        0
Fe      20.75833522       4.18777381       0.81240817  T        1
O       19.20731400       5.13910495       1.68625178  T        2
O       19.97157256       6.09632344       0.76761633  T        3
