147
Lattice="24.397 0.0 0.0 0.0 24.397 0.0 0.0 0.0 24.397" Properties=species:S:1:pos:R:3:move_mask:L:1:tags:I:1 i=41 E=-6943.8331748197 regions="_JSON [\"Active\"]" n_terminators=26 energy=-1032.1941349169904 pbc="F F F"
O        9.59279528      14.69284892      -0.26211269  T        0
O       12.24983125       9.50518775       2.58223410  T        0
O       14.82032921      20.95030391       6.06284371  T        0
O       12.33578461      15.85901826       8.72475492  T        0
O        9.77289186      18.44485879       3.68796487  T        0
O       15.66755797       9.42996982       6.11625548  T        0
O       18.35093029      14.85068790       8.83618515  T        0
O       21.10384564      15.66851072       0.00693449  T        0
O       18.31301919      21.03867241       2.63107851  T        0
O       14.80192421       9.53893368       0.00131191  T        0
O        9.61819933      12.09025247       2.68149471  T        0
O       21.08427697      14.85247467       6.13998306  T        0
O       15.67892085      12.20756960       8.85069419  T        0
O       18.58601650       9.62989622       3.39074471  T        0
O        9.59313136      15.82259829       6.05747255  T        0
O       14.71270212      18.18990877       8.74069111  T        0
O       12.14403947      20.94450749       3.62189602  T        0
O       15.77963355      20.49132203      -0.53985495  T        0
O       21.07580139      18.25441401       2.60145862  T        0
O       11.42311815      13.88875851       1.81858447  T        0
O       14.05373613      11.33040115       1.83379640  T        0
O       13.11579261      20.19748962       7.99352283  T        0
O       10.28350523      17.45837159       8.06303990  T        0
O       10.17865676      20.46501856       5.41306822  T        0
O       19.20441398      16.48287803       1.74595201  T        0
O       16.68953236      19.15979008       1.62819003  T        0
O       10.25480301      10.15011006       0.90969869  T        0
O       11.52898679      16.53785689       4.34425914  T        0
O       14.02757995      18.97611802       4.40977715  T        0
O       14.06489961      16.51782859       6.71798109  T        0
O       19.26165434      13.74835577       4.50490688  T        0
O       16.64935134      11.24814073       4.36393816  T        0
O       16.61323989      13.92627643       6.98272651  T        0
O       12.12821781      12.00900861       3.56445999  T        0
O       12.29279975      21.87441280       6.13540945  T        0
O       12.20558379      18.34425656       9.65182839  T        0
O        8.72813878      18.35897801       6.14050637  T        0
O       18.50680214      18.42288934       3.40053996  T        0
O       12.26532534       8.67286905       0.03601948  T        0
O        8.77170828      12.15243077       0.13726328  T        0
O       12.10573170      14.87022012       6.24006748  T        0
O       12.19232365      18.24617824       2.46058593  T        0
O       15.78717876      18.45857353       6.27505757  T        0
O       18.49818447      15.59199669       6.21516748  T        0
O       18.35527204      12.16698178       2.43059507  T        0
O       14.94563250      12.03870347       6.23578421  T        0
O       10.30295705      16.49103202       1.91361118  T        0
O       14.07053612      10.40171735       4.32538566  T        0
O       14.16378608      22.69413975       7.91690758  T        0
O       10.49393025      16.45974522      10.56771656  T        0
O        7.76713651      20.02950137       4.25922385  T        0
O       10.58245372      22.93694605       4.38759920  T        0
O       20.30008011      13.98265879       1.83666703  T        0
O       16.51776891      19.98892184       4.21676195  T        0
O       16.57062404      10.40317822       1.81985830  T        0
O       10.50400709      13.98674040       4.32954129  T        0
O        7.76505287      16.46204858       7.82536994  T        0
O       14.09648281      20.05159514      10.53087205  T        0
O       14.18278710      20.05290716       1.66969520  T        0
O       20.07089873      16.41843167       4.25532601  T        0
O        7.77269431      10.40102953       1.95558955  T        0
O       16.53815381      16.45127316       7.83478562  T        0
O       14.08019946      14.03013284       7.81746737  T        0
O       10.54339227       7.61791545       1.81049353  T        0
Al      10.81541285      15.19620344       0.84636422  T        0
Si      13.11266527      10.81172352       3.06941848  T        0
Si      13.57855003      21.44488175       7.02649534  T        0
Si      11.30696248      17.03719789       9.26242710  T        0
Si       9.11925936      19.34207359       4.88760840  T        0
Si      19.76899128      15.21684513       0.86649375  T        0
Si      17.51297823      19.63268841       2.96482660  T        0
Si      15.29220207      10.82278029       0.89271959  T        0
Si      10.93022699      13.00374631       3.05918299  T        0
Si       9.07950400      17.04247548       7.03395786  T        0
Si      13.52304624      19.22321979       9.23672969  T        0
Si      11.30852250      21.53905403       4.86012510  T        0
Si      15.36800678      19.51902946       0.73111525  T        0
Si      19.72109747      17.40193994       2.99598451  T        0
Si       9.10108594      11.20182137       1.40839946  T        0
Si      10.88096205      15.26646426       5.22771842  T        0
Al      13.12107724      19.67406265       2.99817464  T        0
Si      15.31594176      17.42881219       7.43542995  T        0
Si      19.74267940      15.15502547       5.23435212  T        0
Si      17.55365434      10.86266736       3.04662106  T        0
Si      15.34017206      13.02596627       7.46146656  T        0
Si      11.31948907       8.98886779       1.33293339  T        0
Si      15.34591881      10.79139221       5.24979435  T        0
Si      17.52921490      15.19402430       7.45439861  T        0
Si      15.29705529      19.62817757       5.22997541  T        0
Si      10.88035781      17.44526015       3.04675866  T        0
Si      13.13156179      15.28259500       7.42565231  T        0
O       14.79247060      12.16363593      -2.62011475  T        0
O       15.67544275      18.30347868      -2.71419278  T        0
O       12.06304995      14.66744328      -2.44255832  T        0
O       18.45469015      15.59363487      -2.72398971  T        0
O       14.12081052      14.01989492      -0.83740616  T        0
O       16.61455395      16.44448694      -0.96855432  T        0
O       13.08141497      10.18758628      -1.97312988  T        0
O       10.06707237      12.84521333      -2.09936994  T        0
O       12.33259507      15.82440767      -0.00555937  T        0
O       15.71856658      12.04125610      -0.10282438  T        0
O       18.54021180      14.79120396      -0.13007823  T        0
O       14.82906448      18.12235679      -0.04234134  T        0
O       12.25018798      12.21178584      -3.46481239  T        0
O       16.63902485      13.89784559      -1.76709702  T        0
O       14.05325068      10.48905941      -4.49157314  T        0
O        7.50382201      13.58725486      -1.58627067  T        0
O       14.05426161      16.43432609      -1.90892153  T        0
O       10.50745207      14.01003099      -4.48140747  T        0
O       14.07425585       7.68583301      -1.71027405  T        0
Si      15.32646227      13.02241804      -1.33443107  T        0
Si      15.33562784      17.33438177      -1.44030589  T        0
Si      13.11835380      15.20949082      -1.32994737  T        0
Si      17.57966831      15.17783309      -1.38828482  T        0
Si      13.54534220       9.02389974      -0.91325552  T        0
Si      11.20837836      13.42005793      -3.11034990  T        0
Si       9.00154080      13.35674790      -0.94030510  T        0
Si      13.53019779      11.25142531      -3.13208315  T        0
H       16.48559112       9.33840607       6.62628668  F        0
H       18.82464116      14.01032609       8.95915608  F        0
H       21.15749781      16.48550533      -0.52720743  F        0
H       18.82463422      21.15752504       1.81198193  F        0
H       21.15748967      14.01033142       6.62630180  F        0
H       16.48560162      11.67124930       8.95913012  F        0
H       18.82463962       9.33839646       4.28720704  F        0
H       16.48550522      21.15749796      -0.52720744  F        0
H       21.15752488      18.82463433       1.81198193  F        0
H       19.36964492      13.46921022       3.54427665  F        0
H       19.09682945      12.70103459       2.85456062  F        0
H       13.68673605      23.15239550       8.63276462  F        0
H        9.66477675      16.80915558      10.95402362  F        0
H        7.34351903      20.83116256       4.61081863  F        0
H        9.66481601      23.15243056       4.61081458  F        0
H       19.78590388      13.44267559       2.53358811  F        0
H        7.34350493      16.80917637       8.63275504  F        0
H       13.68672539      20.83112809      10.95404502  F        0
H        7.34352333       9.66479174       1.48837704  F        0
H        9.66479163       7.34352337       1.48837704  F        0
H       16.48557283      18.82464187      -2.86023677  F        0
H       18.82464171      16.48557294      -2.86023676  F        0
H       13.68673308       9.66480596      -4.85513656  F        0
H        7.34352146      13.68671965      -2.53387758  F        0
H        9.66480591      13.68673318      -4.85513656  F        0
H       13.68671953       7.34352150      -2.53387758  F        0
Fe      13.75568673      16.84814956       4.51897341  T        0
Fe      13.50980983      16.79074200       1.38773654  T        1
O       14.41071802      16.27642589       2.91223136  T        2
