136
Lattice="20.102 0.0 0.0 0.0 19.731 0.0 0.0 0.0 13.253" Properties=species:S:1:pos:R:3:move_mask:L:1:tags:I:1 i=77 E=-3472.0240129048 regions="_JSON [\"Active\"]" n_terminators=28 energy=-940.1801484818284 pbc="F F F"
O       10.29236872       8.45770726       9.66159306  T        0
O        9.96699292      10.94487564       3.53738307  T        0
O        2.18996788      11.34267532       3.99336027  T        0
O        7.59047920       8.94606713      10.56073933  T        0
O       18.19033059       8.77135443       9.24921754  T        0
O       12.69096806      11.00035712       2.65793114  T        0
O        8.05776427       7.27414588       8.23506902  T        0
O       11.78650009      12.74883105       4.86291072  T        0
O        8.70837260      10.01604098       7.99178563  T        0
O       11.82707382      10.02443269       5.35547333  T        0
O        3.71297523      10.76943875       6.03403679  T        0
O        6.16087242       9.54262592      12.86871874  T        0
O       16.73671504       8.97960264       7.03941942  T        0
O       13.87140416      10.13540311       0.30994329  T        0
O        3.02260883       8.84354621       4.16601182  T        0
O        6.08045290      11.08266559      10.81768547  T        0
O       16.65565119      10.92257529       8.86571283  T        0
O       13.94162334       8.68238942       2.44059042  T        0
O        4.82879038      10.71639786       3.65924762  T        0
O        4.93924810       8.66584239      10.59059988  T        0
O       15.48332775       8.55317261       9.28018425  T        0
O       15.31635295      10.99757816       2.42023839  T        0
O        4.34448620      12.55245387       7.98223888  T        0
O       16.00828981       7.26046334       5.14288068  T        0
O       14.00613988      12.40688457      11.93467273  T        0
O        6.11769729      10.67976076       7.12839506  T        0
O       14.19700652       8.93427386       6.19818707  T        0
O       16.22438667      11.39226352      12.97377506  T        0
O        3.95590502      10.00541137       8.54886419  T        0
O        5.81823386      10.16086096       1.21230000  T        0
O       16.14990464       9.83250435       4.62457552  T        0
O       14.70817544       9.87310073      11.39033616  T        0
O        7.94142085      12.52528763       7.71549617  T        0
O       12.15936373       7.34046971       5.51336614  T        0
O        8.47222114      10.93037129       5.69099888  T        0
O       11.88453216       9.00110277       7.60953285  T        0
O        7.34515699      11.14657495       3.24813532  T        0
O        2.36284224       8.28504707       9.88890915  T        0
O       12.93869951       8.42322133      10.03606534  T        0
O       17.76881883      11.52432095       3.31788027  T        0
O        8.36185093       8.83229027       4.06469012  T        0
O       11.68235111      10.74531020       9.53960236  T        0
O        5.54970740      12.68429122       2.02234396  T        0
O        4.20493666       7.39427249       8.26505048  T        0
O       14.95321375       7.15140779      11.35648691  T        0
O       15.71058763      12.44859159       4.69192677  T        0
O        9.91412962      12.77225027       9.51836210  T        0
O       10.23252223       6.92151753       3.71333822  T        0
O        7.40654833      13.33465017      10.20936663  T        0
O       17.81731116      13.29887954       9.41669857  T        0
O       12.76275620       6.39261537       3.08530895  T        0
O        8.69413130      14.87768690       8.36410969  T        0
O       11.53991327       4.86271690       4.93226555  T        0
O        3.63243790       6.54540050       5.68154888  T        0
O        6.47239393      13.16577865      12.59643847  T        0
O       16.39588197      13.03408730       7.23495898  T        0
O       13.61469673       6.60138875       0.65287019  T        0
O        4.74200229      13.31665339      10.55421772  T        0
O       15.14281378      12.95817208       9.58049847  T        0
O       15.41693564       6.51154718       2.62839702  T        0
O        4.12720892       4.86079276       7.67559366  T        0
O       15.60549811      14.92878678       5.43374566  T        0
O        6.08206685       6.45469174       6.61488168  T        0
O       13.87526487      13.15002067       6.51184159  T        0
O        8.01859956       4.76232703       7.46588601  T        0
O       11.78573517      14.85385945       6.65652690  T        0
O        8.47698441       6.71202216       5.65191866  T        0
O       11.49956621      12.33164346       7.44289309  T        0
O        7.74781390       6.44294863       3.01786655  T        0
O        2.26353739      12.71173508       9.54813709  T        0
O       12.53274569      13.23920421       9.82050428  T        0
O       17.98375715       6.42112519       3.44572419  T        0
O        3.58450346      14.99157527       8.85123136  T        0
O       16.22412657       4.76399784       4.53716894  T        0
O       14.13445813      14.92629007      11.14950366  T        0
Al       8.60785120       8.59437083       9.19843016  T        0
Al      11.62050016      11.23352072       3.98272268  T        0
Si       3.45531646      10.41863796       4.46730368  T        0
Si       6.22776526       9.48931102      11.21689903  T        0
Si      16.76770614       9.31498856       8.63050652  T        0
Si      13.92183534      10.25006039       1.95273142  T        0
Si       4.51595688      11.02045097       7.42877348  T        0
Si      15.77229350       8.74278517       5.75202681  T        0
Si      14.67196407      11.02657600      12.52878737  T        0
Si       7.69315524      11.02474693       7.16274704  T        0
Si      12.59058335       8.77659720       6.11645791  T        0
Si       8.55301438      10.45307789       4.06865566  T        0
Si      11.68301956       9.11559581       9.27679766  T        0
Si       5.89062917      11.16371131       2.51930058  T        0
Si       3.88409353       8.57569234       9.34006072  T        0
Si      14.48406613       8.50119394      10.55426482  T        0
Si      16.21869840      11.21097717       3.76359618  T        0
Si       8.48051801      13.38867261       8.99594151  T        0
Si      11.66359190       6.36459209       4.28304700  T        0
Si       6.16748654      12.68190365      11.05993651  T        0
Si      16.50212456      12.53885447       8.78797027  T        0
Si      13.94097541       7.07535616       2.18757123  T        0
Si       4.52293788       6.33338504       7.06578786  T        0
Si      15.40621478      13.39041957       5.98098851  T        0
Si       7.66680123       6.31101628       7.02656019  T        0
Si      12.26671404      13.32437094       6.27677757  T        0
Si       8.67962030       7.22722581       4.13066761  T        0
Si      11.41724001      12.29574550       9.12417480  T        0
Si       3.73348743      13.39820260       9.26579984  T        0
Si      13.96756195      13.38168161      10.61480275  T        0
Si      16.40954901       6.26811004       3.90816280  T        0
O       13.74677905      10.34331785      13.70018460  T        0
H        1.81269882      11.30123319       3.09859993  F        0
H       18.28958667       8.42947104      10.15436836  F        0
H        6.01931354       8.91222751      13.59787507  F        0
H       14.08297195      10.81847671      -0.34490677  F        0
H        3.60112680       8.06005012       4.30646574  F        0
H       16.97340651      10.80641058      12.75613404  F        0
H        5.72719027       9.20254625       1.33756862  F        0
H        1.92726146       8.79770260      10.59110356  F        0
H       18.17502404      10.93300163       2.66186473  F        0
H        5.53537813      12.95496052       1.09262639  F        0
H       14.56690736       6.77574372      12.16034191  F        0
H       18.05303808      13.25020103      10.35989921  F        0
H        8.48702655      15.71151028       8.80063176  F        0
H       11.61525895       4.01919395       4.45233654  F        0
H        3.68470478       7.32851759       5.08310689  F        0
H        5.86807409      12.98161584      13.33116226  F        0
H       14.23421140       6.74908840      -0.07819396  F        0
H        4.37526294       4.01828352       7.26036481  F        0
H       15.72702255      15.71242072       5.99260349  F        0
H        7.92514400       4.01763560       6.85279547  F        0
H       12.17714149      15.71306863       6.40017283  F        0
H        6.78202892       6.52695113       2.93525138  F        0
H        1.73086689      12.60761804      10.35624453  F        0
H       18.37141860       7.12308619       2.89672377  F        0
H        4.05997682      15.72757570       9.28699687  F        0
H       16.04230867       4.00312851       3.96597142  F        0
H       14.11111957      15.72757569      10.59245558  F        0
H       13.51650676      10.58100877      14.61047976  F        0
Fe      10.38775307      10.45830215       6.79665816  T        1
