145
Lattice="20.102 0.0 0.0 0.0 19.731 0.0 0.0 0.0 13.253" Properties=species:S:1:pos:R:3:move_mask:L:1:tags:I:1 i=77 E=-3472.0240129048 regions="_JSON [\"Active\"]" n_terminators=36 energy=-965.9371150212968 pbc="F F F"
O       10.07398279       8.62227366       9.11632020  T        0
O        9.88193829      18.86287222       3.95223466  T        0
O        9.80654281      11.21538490       3.75130789  T        0
O        7.89223612       8.43213084      10.69062620  T        0
O       12.08396202      18.63883322       2.48945886  T        0
O       12.09517534      10.80035540       2.52724246  T        0
O        7.97371854       7.23400400       8.27035539  T        0
O       11.92862443      17.49637746       4.93663955  T        0
O       11.90521314      12.59014950       4.61258369  T        0
O        7.72169656       9.90701832       8.54584163  T        0
O       12.17394430      20.17857280       4.62115115  T        0
O       11.75793737       9.96838168       5.08008348  T        0
O       17.00493042      10.64486227       9.20473962  T        0
O       16.97359484      18.93952248       9.20947860  T        0
O        4.44960967      11.43618604       3.78143581  T        0
O        4.88640799      18.34364968       4.18484731  T        0
O       14.25727731      17.08653803      12.09304736  T        0
O       13.99529470      12.41315197      12.00062813  T        0
O        5.89351917      10.92989174       6.77310450  T        0
O        5.86121832      19.21611913       7.59163128  T        0
O       14.22232769       9.31548596       5.67850149  T        0
O        5.44268387       9.61653007       2.16940507  T        0
O        7.83930639      12.45072971       7.91917757  T        0
O        7.73481256      17.33343646       8.05747489  T        0
O       12.39017041       7.37949781       5.15945216  T        0
O        8.35287904      10.58310184       6.04161023  T        0
O        7.94553044      18.67276889       5.85113626  T        0
O       12.18944024       8.73482888       7.40825091  T        0
O        7.18505348      11.27529965       3.47355110  T        0
O        7.34060115      18.60989341       3.25110966  T        0
O       12.57100479       8.47884177      10.05117759  T        0
O        8.43453586       8.59415578       3.88620143  T        0
O       11.60350208      10.77344918       8.99714003  T        0
O       11.81707703      19.02084640       9.64798825  T        0
O        5.61988324      12.31614501       1.59580769  T        0
O        5.55549347      17.18322128       1.87186023  T        0
O       16.08927014      17.02469393       4.55516432  T        0
O       16.06130557      12.57387593       4.57040611  T        0
O       10.00080861      16.98536742       9.45725755  T        0
O        9.87645945      12.73305437       9.63996295  T        0
O       10.19899214       6.56437070       3.73837504  T        0
O        7.63700337      16.53882402      10.62027172  T        0
O        7.36906286      13.36232780      10.46616926  T        0
O       17.77078776      13.16304984       9.43380670  T        0
O       12.59433688       6.46991077       2.63387329  T        0
O       17.76561894      16.43438849       9.43222107  T        0
O        8.61608655      14.86963906       8.65905008  T        0
O       12.02763326       4.84766111       4.74875451  T        0
O       16.47239052      12.47772652       7.24843302  T        0
O       16.39933469      17.12807561       7.24837601  T        0
O       15.12737951      12.53388707       9.56513431  T        0
O       15.11417817      17.00123416       9.54895347  T        0
O        5.55653359      14.81247676       0.63964810  T        0
O       16.06854675      14.80577166       5.94346765  T        0
O        3.82295317      16.71914485      -0.19246607  T        0
O        6.00866529       6.72072536       6.48562262  T        0
O        3.79673964      12.99117854      -0.31591294  T        0
O       14.06566514      13.13701583       6.40802873  T        0
O       14.01905371      16.52693281       6.24429051  T        0
O        7.66394378       4.74014412       7.45537535  T        0
O       11.76988227      15.07456542       6.06508396  T        0
O        8.49506062       6.63193543       5.71429330  T        0
O       11.27169017      12.94129575       7.42721242  T        0
O       11.81401376      17.31087577       7.54568996  T        0
O        7.64100289       6.13879062       3.18443098  T        0
O       12.52924402      13.08833320       9.82083673  T        0
O       12.54797853      16.56608612      10.02933426  T        0
O       14.30134618      14.76689052      10.83396119  T        0
Si       8.43040259       8.54742616       9.12947272  T        0
Si      11.51354124      18.78066407       4.02903886  T        0
Si      11.44859753      11.17561283       3.99861299  T        0
Si       7.45388574      10.94875442       7.30570079  T        0
Si       7.45317056      18.81523244       7.39694088  T        0
Si      12.63984267       8.83714605       5.84029038  T        0
Al       8.41078740      10.23732286       4.34286496  T        0
Si       8.34617371      19.24680269       4.37611533  T        0
Si      11.61103739       9.14702246       8.88123984  T        0
Si       5.69466399      11.15065037       2.73948509  T        0
Si       5.76607897      18.52045521       2.79532582  T        0
Si       8.48020697      16.46002328       9.20924229  T        0
Si       8.40255431      13.29405732       9.19900077  T        0
Si      11.77909285       6.32800184       4.06254358  T        0
Si      16.56960637      12.20617495       8.85395210  T        0
Si      16.55094485      17.38063245       8.85978574  T        0
Si       5.32896246      16.42698572       0.43726218  T        0
Si       5.32065904      13.23180968       0.27380929  T        0
Si      15.63110641      13.21753507       6.03200534  T        0
Si      15.63563669      16.37489305       6.00057735  T        0
Si       7.53609732       6.31983269       6.98399021  T        0
Al      12.41006547      13.37714794       6.07119737  T        0
Si      12.39619103      16.58110466       6.19727387  T        0
Si       8.67473827       7.02387663       4.12626092  T        0
Si      11.34007572      12.37199157       8.97048364  T        0
Si      11.53305912      17.47611194       9.14747270  T        0
Si      13.99848419      13.18480670      10.54354572  T        0
Si      14.06349386      16.36853377      10.62175801  T        0
O        8.42832654      19.94927254       8.10249252  T        0
O        5.25854081      19.89856628       2.03503490  T        0
O        8.15534206      20.87778132       4.50243139  T        0
O        6.88607728      10.66142906      -2.61232426  T        0
O        7.06342844      13.20528883      -3.50091298  T        0
O        6.41875737      17.12454306      -0.57658272  T        0
O        6.25526155      12.72706709      -0.97162535  T        0
O        4.70653433      12.15513033      -3.15035166  T        0
Si       6.23074676      12.17513432      -2.52366071  T        0
H        7.07153747       8.87866318      10.98534327  F        0
H       13.03074803      18.74401529       2.26762503  F        0
H       13.03074804      10.85204106       2.26762503  F        0
H       12.34310542      20.30287261       5.56688324  F        0
H       16.64303307       9.81912404       8.84117322  F        0
H       16.64304187      19.77694965       8.84122497  F        0
H        4.05829635      10.79936776       4.41071281  F        0
H        4.05829635      18.79668859       4.41071282  F        0
H       14.40563884      18.04556895      12.19637069  F        0
H       14.40563885      11.55048737      12.19637067  F        0
H        5.06295559      10.84500939       7.26028495  F        0
H        5.06295559      18.75104696       7.26028496  F        0
H       15.03932990       8.88569483       5.99268334  F        0
H        5.72719027       9.20254625       1.33756862  F        0
H       13.54926599       8.42132791      10.11787432  F        0
H       11.52310955      19.83515307       9.21116341  F        0
H       15.87290964      17.87210703       4.12309272  F        0
H       15.87290964      11.72394929       4.12309273  F        0
H        6.74596320      16.92620537      10.74076342  F        0
H        6.74596321      12.66985099      10.74076342  F        0
H       18.05303808      13.25020103      10.35989921  F        0
H       13.35632228       7.06085325       2.51220488  F        0
H       18.05303809      16.34585533      10.35989921  F        0
H       11.61525895       4.01919395       4.45233654  F        0
H        2.98936131      16.34896307       0.14601228  F        0
H        5.18772305       6.48136951       6.94399129  F        0
H        2.98936131      13.24709329       0.14601228  F        0
H        7.92514400       4.01763560       6.85279547  F        0
H        6.78202892       6.52695113       2.93525138  F        0
H        8.32625906      20.60985804       8.81306681  F        0
H        5.72719026      20.39380587       1.33756863  F        0
H        8.66651872      21.47399316       3.93953912  F        0
H        6.59189033       9.81912404      -2.21472078  F        0
H        8.00189534      13.25020102      -3.73344676  F        0
H        6.36643797      17.19386972      -1.54340896  F        0
H        4.26454119      12.99430937      -3.37720033  F        0
Fe       9.77442701      14.18786385       6.51048248  T        1
Fe       8.59849472      12.89735870       3.53660781  T        2
O        8.66497337      13.68259505       2.07963010  T        3
O        8.68605759      13.88892505       5.05322602  T        4
