139
Lattice="20.102 0.0 0.0 0.0 19.731 0.0 0.0 0.0 13.253" Properties=species:S:1:pos:R:3:move_mask:L:1:tags:I:1 i=77 E=-3472.0240129048 regions="_JSON [\"Active\"]" n_terminators=34 energy=-927.8456594968409 pbc="F F F"
O       10.18760333       1.23505073       9.14574204  T        0
O        7.83166752       1.11959770      10.32951481  T        0
O        8.20812225       2.77718649       8.23073779  T        0
O        8.12864890       0.14519493       7.80961859  T        0
O        6.57483360       1.08421818      12.87608045  T        0
O        4.98129248       1.50633081      10.45991611  T        0
O       15.22436984       1.41133470       9.07842617  T        0
O       14.37342172       0.55471666       5.42283813  T        0
O       12.71181301       2.54548380       4.91023384  T        0
O       12.16818946       0.83640375       6.96733125  T        0
O        2.31718573       1.60024176       9.87228683  T        0
O       12.69092091       1.22321470       9.90878057  T        0
O        4.11041150       2.43197845       8.10425589  T        0
O       14.40130228       2.53896766      11.42307439  T        0
O        3.71909954       3.36654596       5.59218986  T        0
O        4.27391217       4.97822066       7.67565739  T        0
O       14.13186933       5.02595673      12.18874276  T        0
O        6.17103402       3.35386839       6.60416907  T        0
O       16.46786577       3.87357751      12.57858914  T        0
O        8.33646485       4.99054453       6.62426291  T        0
O        8.62158260       2.49347440       5.71546126  T        0
Si       8.54366681       1.30276048       8.88902274  T        0
Al       6.32068500       0.61868063      11.08477237  T        0
Si      12.77360648       0.99381545       5.47922563  T        0
Al      11.69634976       0.43105404       8.55999397  T        0
Si       3.85926233       1.36231350       9.31979247  T        0
Si      14.26709662       1.25515542      10.41686442  T        0
Si       4.57835755       3.51100827       6.99521633  T        0
Si      14.83782349       3.59721662      12.58893008  T        0
Si       7.79096200       3.43484851       6.79079998  T        0
O       13.50867522       0.87622619      15.30372957  T        0
O        5.67274749       2.54063924      14.91048758  T        0
O        4.00958013       1.07041816      13.35710311  T        0
O       14.27024780       0.98918871      19.85241837  T        0
O        5.61990201      -0.09116148      15.17786066  T        0
O       12.28432027       2.45726899      18.72033233  T        0
O       11.69361046       0.60606060      20.62704962  T        0
O        8.61539802       1.03583598      17.70186892  T        0
O       10.28235121       3.07640227      17.01366513  T        0
O       12.80367885       3.28274214      16.21845961  T        0
O       11.91722628       4.99688032      18.08707361  T        0
O       14.33975269       3.07965682      14.05179046  T        0
O        5.22022271       2.98771609      17.53767328  T        0
O       15.33754250       2.32208108      16.43801996  T        0
O        8.71337149       3.34251818      19.05275076  T        0
O        7.64879224       3.31353340      16.59052379  T        0
O        5.67899770       4.97330945      15.67459053  T        0
Si       5.45876383       1.13231474      14.12820401  T        0
Si      12.68216927       1.00532737      19.38106836  T        0
Si      11.79743108       3.45608796      17.51189321  T        0
Si      13.97499654       2.41014268      15.49651245  T        0
Si       8.80063826       2.64688744      17.55847416  T        0
Si       6.07348589       3.46371891      16.19774464  T        0
O       10.15703434      -1.14846397      17.24233457  T        0
O       12.52359901      -1.45499248      15.97771873  T        0
O       12.08675588      -2.87063032      18.12767115  T        0
O       12.43708432      -0.16473366      18.27056222  T        0
O       13.76618956      -1.09338238      13.56031761  T        0
O        4.98687140      -1.21611855      17.55106239  T        0
O       15.25609633      -1.19112229      15.60812514  T        0
O        8.57145599      -1.13672967      19.29617996  T        0
O        7.48644835      -1.20471724      16.80416634  T        0
O        5.81408545      -2.70783568      15.37663917  T        0
O        5.22888972      -5.15144643      14.40399257  T        0
O        3.65505928      -2.98419643      13.98372422  T        0
Si      11.76485082      -1.40476272      17.44565768  T        0
Si      13.74152725      -0.73315640      15.15813776  T        0
Si       8.69165087      -0.59695563      17.73822030  T        0
Si       5.96727582      -1.30648406      16.21718461  T        0
Si       5.21699861      -3.52771413      14.08502267  T        0
O       11.95776287       0.07316009       4.36363148  T        0
O        3.28388731      -0.67070434       6.21845832  T        0
O        6.17638075      -1.09929366      11.10548802  T        0
O        3.99175537      -2.63520549       7.96485974  T        0
O       14.20577510      -2.72334425      11.54954536  T        0
O        5.85867713      -0.97149044       6.93397033  T        0
O       16.32158534      -1.64064284      12.58984265  T        0
O        3.96281611      -0.14592099       8.68013158  T        0
O       14.64082404      -0.09064827      11.24217784  T        0
O        7.78448396      -2.50120170       7.90539105  T        0
O        8.12993999      -1.35933902       5.55041277  T        0
O       11.59279969      -1.23174097       8.98778503  T        0
O        9.82660148      -3.21971485       9.50005206  T        0
O        7.34485295      -3.39627278      10.40038693  T        0
O        8.11819058      -5.03629258       8.41174366  T        0
O        6.08517777      -3.22852385      12.73268615  T        0
O        4.67214102      -3.22740922      10.51972715  T        0
O       14.82444856      -2.82497320       8.92258327  T        0
O       11.31103721      -3.34987373       7.34426056  T        0
O        2.10758167      -3.44866821       9.80251012  T        0
O       12.43778002      -3.62447674       9.77178277  T        0
O        3.87192449      -5.10050083       8.71632318  T        0
O       14.63288981      -5.08204868      10.34523624  T        0
Si       4.30432522      -1.11926937       7.43324998  T        0
Si      14.72815504      -1.36645441      12.26546035  T        0
Si       7.48656044      -1.15010011       7.05079505  T        0
Si       8.27863503      -3.53495498       9.06538169  T        0
Si       6.08260194      -2.69128868      11.17549074  T        0
Si      11.29311033      -2.80990171       8.90732213  T        0
Si       3.67423544      -3.56657867       9.27455322  T        0
Si      14.01502599      -3.56754359      10.16150713  T        0
H       16.04398914       0.93401564       8.84225549  F        0
H       15.03932989       0.97965726       5.99268335  F        0
H       11.89104871       3.03992679       4.74838323  F        0
H        1.92726146       1.06764952      10.59110356  F        0
H        3.68470477       2.53683452       5.08310689  F        0
H        4.37526294       5.84706860       7.26036481  F        0
H       14.42640568       5.84706861      12.61908764  F        0
H       17.11292418       3.38174117      13.10695602  F        0
H        7.92514400       5.84771651       6.85279547  F        0
H        8.61892989       2.44869843       4.74740482  F        0
H        3.12887898       0.94105847      13.74983427  F        0
H       15.03932989       0.97965726      19.24568335  F        0
H       11.59562866       0.71940466      21.58822473  F        0
H       11.61525895       5.84615817      17.70533654  F        0
H        4.34567169       2.56164175      17.50136906  F        0
H       15.83774431       3.12895724      16.63016863  F        0
H        8.00892553       3.05661785      19.65039776  F        0
H        5.99116593       5.86222359      15.91351272  F        0
H       12.25872462      -3.14188650      19.04928408  F        0
H        4.05829635      -0.93431141      17.66371282  F        0
H       15.58095514      -1.34062803      16.50370227  F        0
H        7.89439933      -0.88911559      19.94994329  F        0
H        5.67587981      -5.84736437      13.88688066  F        0
H        2.98936131      -3.38203693      13.39901228  F        0
H       11.77602643      -0.87915380       4.43990149  F        0
H        3.46536401      -0.71595242       5.26900440  F        0
H       16.97340650      -0.94135423      12.75613404  F        0
H        8.50665683      -0.71970043       4.91774358  F        0
H        8.48702655      -5.84645393       8.80063176  F        0
H       15.75661380      -2.56193752       9.00459925  F        0
H       12.09335995      -3.05691362       6.85557055  F        0
H        1.73086688      -2.74256168      10.35624453  F        0
H        4.05997682      -5.86251935       9.28699688  F        0
H       14.11111956      -5.86251936      10.59245558  F        0
Fe      10.98945749       1.61701602      11.00342534  T        0
Fe       8.48767954       1.36808971      13.30164012  T        1
O       10.03461171       1.86236931      12.54879371  T        2
O        8.62471312       0.96997514      14.91638327  T        3
