145
Lattice="24.397 0.0 0.0 0.0 24.397 0.0 0.0 0.0 24.397" Properties=species:S:1:pos:R:3:move_mask:L:1:tags:I:1 i=41 E=-6943.8331748197 regions="_JSON [\"Active\"]" n_terminators=24 energy=-1031.9068850222527 pbc="F F F"
O        9.65592368      14.62457487      -0.22537909  T        0
O       12.26951527       9.47045600       2.59630920  T        0
O       14.88388982      20.84722365       6.23894871  T        0
O       12.24456969      15.69622467       8.78359154  T        0
O        9.67288281      18.42828929       3.67822760  T        0
O       20.96307362      15.69371197       0.02400492  T        0
O       18.33480546      20.84388540       2.52642487  T        0
O       14.79832731       9.56644246       0.00049641  T        0
O        9.67897648      12.08060491       2.63199411  T        0
O        9.63232220      15.68575310       6.19893548  T        0
O       14.81943036      18.24347666       8.81611971  T        0
O       12.02781182      20.96993791       3.63398695  T        0
O       15.80562791      20.69657744      -0.18483154  T        0
O       20.93710486      18.26004349       2.55619620  T        0
O       11.47220545      13.94945149       1.91969702  T        0
O       14.16028409      11.27322701       1.98361171  T        0
O       13.10862876      20.20727045       8.16399435  T        0
O       10.26996718      17.41935760       8.15865221  T        0
O       10.10336964      20.44516526       5.42243359  T        0
O       19.19429657      16.29657814       1.95228288  T        0
O       16.45125131      19.09141044       1.84922614  T        0
O       10.29780264      10.13000618       0.88488844  T        0
O       11.32204838      16.41921995       4.30926938  T        0
O       14.14006384      19.11330088       4.34080681  T        0
O       14.18528682      16.34482811       7.02862624  T        0
O       20.31646457      20.24008235       0.81945212  T        0
O       12.17202262      11.97178727       3.57927744  T        0
O       12.33116465      21.72383850       6.18928835  T        0
O       12.28471335      18.21015169       9.68480650  T        0
O        8.77286792      18.25034759       6.17076825  T        0
O       18.42399845      18.31280930       3.43986274  T        0
O       12.29745453       8.61476486       0.06245996  T        0
O        8.76302705      12.09968596       0.09912031  T        0
O       12.17581788      14.82943208       6.25622075  T        0
O       12.09952842      18.25059418       2.57337931  T        0
O       15.78205632      18.33213125       6.30379166  T        0
O       18.28441638      21.73697349       0.00866807  T        0
O       21.84478784      18.22966232       0.04524942  T        0
O       10.32108790      16.59664031       1.78771344  T        0
O       14.00928473      10.19783480       4.44867716  T        0
O       14.17262721      22.68915074       7.93050730  T        0
O       10.50940352      16.42681940      10.65210326  T        0
O        7.65118887      19.93270982       4.40716711  T        0
O       10.61530545      23.00468764       4.71911301  T        0
O       20.22659175      13.80840649       1.74361999  T        0
O       16.63216072      20.00232158       4.39767963  T        0
O       16.67680030      10.29797071       1.73254112  T        0
O       10.51207806      13.86232724       4.42922322  T        0
O        7.76863385      16.39385190       7.86441743  T        0
O       14.05446687      19.96998704      10.68269081  T        0
O       13.85409850      19.80262114       1.53117660  T        0
O       20.20720869      16.54490755       4.44627626  T        0
O       20.00643060      22.75157950       1.82001589  T        0
O        7.82585138      10.36502151       1.96114227  T        0
O       16.66705975      16.51047151       8.07932827  T        0
O       13.95626233      13.83676017       8.02716602  T        0
O       22.79863733      19.99971237       1.85614510  T        0
O       10.53928575       7.60801518       1.82904443  T        0
Al      10.84236332      15.19377137       0.88652887  T        0
Si      13.14296215      10.73955020       3.15564357  T        0
Si      13.61224721      21.36993439       7.12404901  T        0
Si      11.32418351      16.94312058       9.31741548  T        0
Si       9.06589936      19.28157445       4.93820093  T        0
Si      19.71441049      15.13770434       0.92434484  T        0
Si      17.46215618      19.57063361       3.07227564  T        0
Si      15.32315200      10.79968587       0.94269964  T        0
Si      10.96799386      12.98533661       3.11037830  T        0
Si       9.11368610      16.94980032       7.09935948  T        0
Si      13.56535487      19.16443757       9.33393995  T        0
Si      11.27665987      21.51424015       4.95938877  T        0
Si      15.27857282      19.52696850       0.81434566  T        0
Si      19.69247418      17.34600875       3.10551069  T        0
Si       9.13737322      11.17734783       1.38511217  T        0
Si      10.90507291      15.17999962       5.29779655  T        0
Al      13.05145857      19.67901753       3.13413733  T        0
Si      15.36208726      17.36219030       7.54571643  T        0
Si      21.47519053      19.18852878       1.31624158  T        0
Si      11.33937708       8.96176661       1.34468607  T        0
Si      15.33424690      19.56377392       5.31864521  T        0
Si      10.78020774      17.38199601       3.10975735  T        0
Si      13.14798091      15.17752194       7.51745338  T        0
Si      19.25402112      21.39235299       1.28834143  T        0
O       14.75263978      12.13494410      -2.54836110  T        0
O       15.83209610      18.34767463      -2.59441388  T        0
O       12.05032124      14.67099240      -2.43281614  T        0
O       18.40286797      15.62631754      -2.59957880  T        0
O       14.08161155      14.05279667      -0.80809519  T        0
O       16.53303371      16.38712150      -0.88848624  T        0
O       13.02409716      10.17735122      -1.94683009  T        0
O       10.05843794      12.82747110      -2.12335885  T        0
O       17.62315795      20.28695946      -2.10531154  T        0
O       20.30094967      17.41715854      -1.93761501  T        0
O       12.31081147      15.93690752      -0.03138671  T        0
O       15.66951353      12.08194400      -0.01274980  T        0
O       18.45900199      14.75969536      -0.05469336  T        0
O       14.78486703      18.17987581      -0.10854899  T        0
O       12.24951911      12.21495100      -3.47100217  T        0
O       18.32562809      18.15251154      -3.52305927  T        0
O       16.58832683      13.86841607      -1.73554510  T        0
O       14.05864850      10.46595330      -4.44571430  T        0
O       22.80806749      16.41933077      -1.71006314  T        0
O       16.59763576      19.91954946      -4.58257581  T        0
O        7.53414362      13.66583577      -1.58490250  T        0
O       14.03171409      16.46637059      -1.93650682  T        0
O       10.50897282      14.01455661      -4.48799585  T        0
O       16.45518986      22.70222002      -1.74470057  T        0
O       20.10224933      16.33327474      -4.42680367  T        0
O       14.10355631       7.71104140      -1.73375395  T        0
Si      15.26958525      13.01564599      -1.27735852  T        0
Si      15.33303591      17.32124848      -1.44442140  T        0
Si      13.09730078      15.24284444      -1.32812338  T        0
Si      17.51640099      15.13793636      -1.32025456  T        0
Si      13.54535232       9.01816507      -0.90510168  T        0
Si      11.20340843      13.41992714      -3.11647005  T        0
Si      17.06744462      21.36807724      -1.00734656  T        0
Si      19.29505718      16.89643255      -3.11776622  T        0
Si       9.01579455      13.33462992      -0.94225620  T        0
Si      13.50116699      11.23225257      -3.10370662  T        0
Si      21.48255635      16.94627784      -0.89820589  T        0
Si      17.11353031      19.19005384      -3.20673741  T        0
H       14.73192765      10.71000053       4.85487458  F        0
H       13.68673605      23.15239550       8.63276462  F        0
H        9.66477675      16.80915558      10.95402362  F        0
H        7.34351903      20.83116256       4.61081863  F        0
H        9.66481601      23.15243056       4.61081458  F        0
H       19.78590388      13.44267559       2.53358811  F        0
H       17.05321204      10.71001402       2.53361564  F        0
H        7.34350493      16.80917637       8.63275504  F        0
H       13.68672539      20.83112809      10.95404502  F        0
H       19.78593016      15.76396550       4.85484922  F        0
H       20.83112530      23.15241223       1.48839475  F        0
H        7.34352333       9.66479174       1.48837704  F        0
H       17.05322892      15.76398032       7.58755865  F        0
H       14.73195660      13.44271185       7.58757947  F        0
H       23.15241204      20.83112542       1.48839475  F        0
H        9.66479163       7.34352337       1.48837704  F        0
H       13.68673308       9.66480596      -4.85513656  F        0
H       23.15240156      16.80916493      -2.53384338  F        0
H       16.80913871      20.83112323      -4.85512183  F        0
H        7.34352146      13.68671965      -2.53387758  F        0
H        9.66480591      13.68673318      -4.85513656  F        0
H       16.80916481      23.15240172      -2.53384338  F        0
H       20.83112308      16.80913882      -4.85512183  F        0
H       13.68671953       7.34352150      -2.53387758  F        0
Fe      12.88465650      17.70834594       0.85385832  T        1
