142
Lattice="20.102 0.0 0.0 0.0 19.731 0.0 0.0 0.0 13.253" Properties=species:S:1:pos:R:3:move_mask:L:1:tags:I:1 i=77 E=-3472.0240129048 regions="_JSON [\"Active\"]" n_terminators=34 energy=-951.8727351641616 pbc="F F F"
O       11.90417723      16.84899798       4.73723629  T        0
O       11.90585864      12.76352862       4.67819007  T        0
O        3.41233481      18.41021760       6.02561080  T        0
O        6.34334662      18.81395177      11.07361606  T        0
O        6.52779863      10.55133889      11.66898974  T        0
O       17.02252179      10.69110962       9.07553133  T        0
O       16.29640243      18.94924808       8.84862692  T        0
O        3.66494232      12.13150680       8.06115226  T        0
O        4.05668516      17.13524397       8.16663514  T        0
O       14.45732448      17.30170701      11.98999276  T        0
O       14.04978570      11.96277842      11.89653738  T        0
O        5.99292038      18.47411886       6.78343689  T        0
O       16.14447766      19.13296538      13.12263268  T        0
O       16.11774440      10.77404977      13.21648463  T        0
O        4.23999883      19.81660786       8.20159745  T        0
O       14.12890061      19.85428230      11.43272410  T        0
O       14.73571810       9.32571519      11.45020534  T        0
O        7.37466301      12.06648777       8.14902325  T        0
O        8.13529969      17.23999347       7.68835712  T        0
O        8.43581707      19.27211366       5.84614736  T        0
O       12.03099510      10.58305074       9.29508643  T        0
O       11.28103380      18.96904065       9.17657108  T        0
O       16.38259114      17.29700757       4.72725886  T        0
O       16.24209803      12.54008436       4.49873273  T        0
O       10.29463311      16.43850688       9.42895335  T        0
O        9.87441764      12.19573964       9.11685417  T        0
O        7.57781609      16.45329160      10.54599940  T        0
O        7.74389037      12.79720400      10.66792304  T        0
O       17.81671033      13.20319235       9.41684323  T        0
O       17.90715009      17.10783828       9.77019700  T        0
O        8.46024912      14.48987299       8.87948358  T        0
O        6.27865056      16.79875479      12.82524425  T        0
O        6.13911863      12.91216726      12.70423837  T        0
O       16.59756798      12.59815887       7.17719740  T        0
O       16.63465132      16.81148912       7.32679490  T        0
O        4.89800710      16.60617417      10.59896292  T        0
O        5.19254811      12.45965310      10.22068703  T        0
O       15.15797521      12.70693699       9.39356148  T        0
O       15.29086485      16.56243371       9.56367542  T        0
O       15.96625119      14.80399502       5.74535380  T        0
O       14.16033706      12.84279215       6.17851772  T        0
O       14.20210022      16.76014248       6.16937971  T        0
O       12.34913921      14.79428082       6.28642967  T        0
O       11.79371947      12.39346723       7.31039398  T        0
O       11.95581701      17.15629715       7.41845379  T        0
O        2.27555538      16.22919807      10.08288092  T        0
O        2.66373911      12.78515718      10.53947546  T        0
O       12.29465851      13.15003645       9.83505690  T        0
O       12.68062587      16.81707115      10.01723880  T        0
O        4.03219612      14.60162617       9.08496402  T        0
O       13.86065525      14.82463655      11.07372523  T        0
Si       4.44100195      18.47587348       7.30268039  T        0
Si      14.61214577      18.82188186      12.59616739  T        0
Si      14.61612957      10.58157038      12.53311935  T        0
Si       7.59214483      18.65506986       7.11789947  T        0
Al       8.57111263      16.24411125       9.00674154  T        0
Si       8.40963467      12.90125547       9.12089524  T        0
Si       6.26357710      17.21046806      11.23656418  T        0
Si       6.34239998      12.13017172      11.29850670  T        0
Si      16.59217700      12.26606334       8.79304987  T        0
Si      16.55163430      17.34341890       8.86670733  T        0
Si      15.74454489      13.19181835       5.92322995  T        0
Si      15.79153749      16.40426229       5.98106139  T        0
Si      12.57675416      13.19131655       6.11562955  T        0
Si      12.61649582      16.38751572       6.14106046  T        0
Si      11.49709500      12.08156622       8.88144665  T        0
Si      11.53902270      17.39589680       8.96345039  T        0
Si       3.80072181      16.18120090       9.46131191  T        0
Si       3.86804243      13.00818680       9.43980785  T        0
Al      13.97532658      13.08269072      10.58957536  T        0
Si      14.14232761      16.37713050      10.68578625  T        0
O       14.02505516      20.73203491      15.97247363  T        0
O        9.91774335      21.23093184       9.17724013  T        0
O        7.59697144      21.09529223      10.49650251  T        0
O       17.94566382      21.09226861       9.24191183  T        0
O        7.65207321      22.52519671       8.34139688  T        0
O        7.81870075      19.80962517       8.24475876  T        0
O        6.41922283      20.97291303      12.76327733  T        0
O       16.49712274      21.02900977       7.09168500  T        0
O        4.89867333      20.97302187      10.50775352  T        0
O       15.24893902      21.27058141       9.48314829  T        0
O       11.51585663      20.86425523       7.19118632  T        0
O        2.31721205      20.82810323       9.70103868  T        0
O       12.58369830      21.19250262       9.69134871  T        0
O        3.92798299      22.48369925       8.42561498  T        0
O       13.92500324      22.55942985      11.47415324  T        0
Si       8.28378489      21.16270586       9.01807213  T        0
Si       6.28480650      20.45403193      11.21575114  T        0
Si      16.49141692      20.56715916       8.67196971  T        0
Si      11.36082305      20.56887448       8.80154889  T        0
Si       3.87969976      21.04048590       9.21720378  T        0
Si      13.99131642      21.21322944      10.52821736  T        0
O       12.08654597      18.75796614      15.95533160  T        0
O       13.68148169      19.01129090      13.91541664  T        0
O       13.63861078      10.08322598      13.77965975  T        0
O       14.64271462      18.18566753      16.36191572  T        0
O        5.89147832      12.60693630      15.36656627  T        0
O        5.73278221      16.95706773      15.46297327  T        0
O        5.17360858      14.80999484      14.19541521  T        0
O        3.69867405      16.97363208      13.63819220  T        0
O        3.65038843      12.66080538      13.81464359  T        0
Si      13.62092566      19.18642534      15.54664600  T        0
Si       5.20389029      16.41020861      14.01884441  T        0
Si       5.18662381      13.20697782      14.02548035  T        0
H       11.77741499      17.76721957       4.45015374  F        0
H       11.77741500      11.82883679       4.45015372  F        0
H        3.46536401      19.01504758       5.26900440  F        0
H        6.59189033       9.81912404      11.03827922  F        0
H       16.64303307       9.81912404       8.84117322  F        0
H        4.35449611      11.55048736       7.68308178  F        0
H       16.97340650      18.78964577      12.75613404  F        0
H       16.97340651      10.80641058      12.75613404  F        0
H       14.16364097       9.08086469      10.69751272  F        0
H        7.69777211      11.47779022       7.44841170  F        0
H        8.50665683      19.01129957       4.91774358  F        0
H       11.52310774       9.76092419       9.21110646  F        0
H       15.87290964      17.87210703       4.12309272  F        0
H       15.87290964      11.72394929       4.12309273  F        0
H       18.05303808      13.25020103      10.35989921  F        0
H       18.05303809      16.34585533      10.35989921  F        0
H        1.73086688      16.98843832      10.35624453  F        0
H        1.73086689      12.60761804      10.35624453  F        0
H       13.65226955      21.53630200      15.57301841  F        0
H       18.28958667      21.16688107      10.15436837  F        0
H        7.84356087      22.87259074       7.45668424  F        0
H        6.01931354      20.68412461      13.59787507  F        0
H       16.07044730      20.68412712       6.28158542  F        0
H       12.20788616      20.61981982       6.55602502  F        0
H        1.92726146      20.79864952      10.59110356  F        0
H        4.51576461      22.82060840       7.71911054  F        0
H       14.56690736      22.82060840      12.16034191  F        0
H       11.86384156      18.29482316      16.78088422  F        0
H       13.51650676      10.58100877      14.61047976  F        0
H       15.58095514      18.39037197      16.50370227  F        0
H        5.82176689      11.72394931      15.75639142  F        0
H        5.82176689      17.87210706      15.75639142  F        0
H        2.98936131      16.34896307      13.39901228  F        0
H        2.98936131      13.24709329      13.39901228  F        0
Fe       8.41577527      14.77050535      11.45592875  T        0
Fe      11.52602377      14.94766001      10.68532800  T        1
O       10.17382606      13.92648075      11.91168085  T        2
O       10.18825555      15.37946336      12.26124277  T        3
