136
Lattice="20.102 0.0 0.0 0.0 19.731 0.0 0.0 0.0 13.253" Properties=species:S:1:pos:R:3:move_mask:L:1:tags:I:1 i=77 E=-3472.0240129048 regions="_JSON [\"Active\"]" n_terminators=36 energy=-894.9864365088255 pbc="F F F"
O       10.22481984      18.36061858       4.33061721  T        0
O       10.05404525      10.81678898       4.09872603  T        0
O        2.22076136      11.32740389       3.98582029  T        0
O        2.31656340      18.26142584       3.93414831  T        0
O       12.37502028      18.17834368       2.71692304  T        0
O       12.15050534      11.13957787       2.56168571  T        0
O       12.37493630      17.11630088       5.16585010  T        0
O       12.11505546      12.19818582       5.05262355  T        0
O        8.43640748       9.93294642       8.62862599  T        0
O       12.54141506      19.81262413       4.75265389  T        0
O       12.37849550       9.52973276       4.62910967  T        0
O        3.77330130      10.62391817       6.02103583  T        0
O        3.80368172      19.05754242       5.97138236  T        0
O        5.86647933      19.15440883      10.84757898  T        0
O        3.11995989       8.85742560       4.03516561  T        0
O        6.04533024      10.57408176      10.76231403  T        0
O        4.85255225      10.89213701       3.59816125  T        0
O        4.98337976      18.63265967       3.63489414  T        0
O        4.16150444      12.32219094       8.03422666  T        0
O        3.96552066      17.41815657       8.05189325  T        0
O        6.02741040      10.45694798       7.43593390  T        0
O        6.04479766      18.97260161       7.42555533  T        0
O        3.68866864       9.65392769       8.50759349  T        0
O        6.45728368       9.64056017       1.79198211  T        0
O        3.77527150      20.14448896       8.34316708  T        0
O        7.71794543      12.40916393       8.10826994  T        0
O        8.02150246      17.19791184       7.95575404  T        0
O        8.28699383      10.83903557       6.08900587  T        0
O        8.27039615      19.06243310       6.01933920  T        0
O        7.50581028      11.17613329       3.57035126  T        0
O        7.66166617      18.46778152       3.50349717  T        0
O        1.47553612      19.05111371      11.24829219  T        0
O        8.32896126       8.75593255       4.59166286  T        0
O        1.31139884      10.42232477      11.36373673  T        0
O       11.81877974      10.60006996       9.61857116  T        0
O       11.64234888      19.05465517       8.64357675  T        0
O        6.00934963      12.30084952       1.64066589  T        0
O        6.07497521      17.32367576       1.59859400  T        0
O       10.22765429      17.02583138       9.85371009  T        0
O        9.95322347      12.60769720       9.56087367  T        0
O        7.45433104      16.91838038      10.79947597  T        0
O        7.57288884      12.85793262      10.70952454  T        0
O        8.41972489      14.79227012       8.99336751  T        0
O        5.78200852      17.46245288      12.86987321  T        0
O        6.23797005      12.18602173      12.91446262  T        0
O        4.79769531      16.76607224      10.49480704  T        0
O        4.88640217      12.93461331      10.72466740  T        0
O        5.37340211      14.80520099       0.88894328  T        0
O        3.73290210      16.89960447       0.45755925  T        0
O        3.74505834      12.68933688       0.40013218  T        0
O       14.19439416      12.72633787       6.69758085  T        0
O       14.21340680      16.28860283       6.97105755  T        0
O       12.34094719      14.61236785       6.08115522  T        0
O        1.23855953      16.70682721      12.47741402  T        0
O        1.16764278      12.75094625      12.63602038  T        0
O       11.78222991      12.45276352       7.64746839  T        0
O       11.74797198      16.61017915       7.74637806  T        0
O        2.18759458      16.76565693       9.94135228  T        0
O        2.03328571      12.71591588      10.06772838  T        0
O       12.35588310      13.15602869      10.23260032  T        0
O       12.92261707      17.25972659      10.12560620  T        0
O        3.78129117      14.86062024       8.89236612  T        0
Si      11.86478075      18.38764326       4.27151989  T        0
Si      11.67786374      10.93837290       4.12125888  T        0
Si       3.52082008      10.41326166       4.41474811  T        0
Si       3.61677743      19.17761543       4.35431078  T        0
Si       4.42184541      10.75443503       7.51753621  T        0
Si       4.41615798      18.89084243       7.47551772  T        0
Si       7.60330279      10.87291211       7.55210662  T        0
Si       7.65750098      18.74098672       7.48879944  T        0
Si       8.55563920      10.39022550       4.54953565  T        0
Si       8.80750388      19.14564397       4.47053033  T        0
Si       6.17373877      11.02107517       2.64936926  T        0
Si       6.27573515      18.58243270       2.64037953  T        0
Al       8.60281380      16.53151615       9.56339825  T        0
Si       8.44807475      13.17770804       9.37034361  T        0
Si       6.03799064      17.54590172      11.23572878  T        0
Si       6.18646943      12.15340097      11.26089887  T        0
Si       5.31827398      16.39202280       0.48163266  T        0
Si       5.31896661      13.22121393       0.47799137  T        0
Si      12.60276798      13.03436142       6.36186771  T        0
Si      12.63921264      16.17398291       6.46715816  T        0
Si       1.14156991      17.45470167      11.01289821  T        0
Si       1.02673110      12.03840859      11.14642715  T        0
Si      11.49296888      12.17486029       9.23110967  T        0
Si      11.61072080      17.46960785       9.13966826  T        0
Si       3.67865966      16.46357841       9.35256848  T        0
Al       3.60903962      13.16296336       9.58182053  T        0
O        8.33154288      19.64594647       8.69658098  T        0
O        3.31379290      20.72547944       3.85642611  T        0
O        6.47256453      19.99774705       1.81112525  T        0
O        9.21765350      20.69448696       4.09532526  T        0
O        6.03082206      16.46054045      -1.00054880  T        0
O        6.10375881      13.13934199      -0.96555143  T        0
O       -0.55789397      12.19428232      10.69357544  T        0
O       -0.40259028      17.26988430      10.46154291  T        0
H        1.81269882      11.30123319       3.09859993  F        0
H        1.81269882      18.29482316       3.09859994  F        0
H       13.03074803      18.74401529       2.26762503  F        0
H       13.03074804      10.85204106       2.26762503  F        0
H        8.32625906       8.98649408       8.81306681  F        0
H       12.34310542      20.30287261       5.56688324  F        0
H       12.34314048       9.29328245       5.56696388  F        0
H        6.59189912      19.77694965      11.03822749  F        0
H        3.60112680       8.06005012       4.30646574  F        0
H        6.59189033       9.81912404      11.03827922  F        0
H        4.11249823       9.08086468       9.18193973  F        0
H        5.72719027       9.20254625       1.33756862  F        0
H        4.11250309      20.51523557       9.18186357  F        0
H        1.47196681      19.83515306      10.66828905  F        0
H        8.66651872       8.12235896       3.93953912  F        0
H        1.47196499       9.76092419      10.66834598  F        0
H       11.52310774       9.76092419       9.21110646  F        0
H       11.52310955      19.83515307       9.21116341  F        0
H        5.86807409      16.61444052      13.33116226  F        0
H        5.86807409      12.98161584      13.33116226  F        0
H        2.98936131      16.34896307       0.14601228  F        0
H        2.98936131      13.24709329       0.14601228  F        0
H       14.91456245      13.24933472       6.30897701  F        0
H       14.91456244      16.34672163       6.30897701  F        0
H        2.04221098      16.67409347      13.02389096  F        0
H        2.04221098      12.92196288      13.02389096  F        0
H       13.32025657      13.20375310      10.31771692  F        0
H       13.32025658      16.39230324      10.31771692  F        0
H        8.32625906      20.60985804       8.81306681  F        0
H        3.60112680      21.53630199       4.30646574  F        0
H        5.72719026      20.39380587       1.33756863  F        0
H        8.66651872      21.47399316       3.93953912  F        0
H        6.36643797      17.19386972      -1.54340896  F        0
H        6.36643797      12.40218664      -1.54340896  F        0
H       -1.04605969      13.03623234      10.65268580  F        0
H       -1.04605969      16.55982401      10.65268579  F        0
Fe       7.99874102      15.36192344       6.98665390  T        0
Fe       4.98154802      14.08240662       7.34628801  T        1
O        6.30432782      14.94204200       6.46339084  T        2
O        9.30091700      15.02600662       5.98864689  T        3
