135
Lattice="19.123 0.0 0.0 0.0 14.277 0.0 0.0 0.0 7.5465" Properties=species:S:1:pos:R:3:move_mask:L:1:tags:I:1 i=128 E=-2603.9155142701 regions="_JSON [\"Active\"]" n_terminators=32 energy=-907.3057798310025 pbc="F F F"
O        6.08674481       1.14291485       1.49146594  T        0
O       15.61572405       8.46290435       5.84034213  T        0
O       13.03645591       1.12684416       1.47285250  T        0
O        3.40106609       8.48398140       5.88027235  T        0
O        6.08442057      13.13395599       1.49121214  T        0
O       15.61752460       5.81229439       5.84021893  T        0
O       13.03731068      13.14999540       1.47216436  T        0
O        3.40061878       5.79318542       5.87679644  T        0
O       12.91858835      12.99574880       5.29158790  T        0
O        3.45420151       5.79475423       1.70197437  T        0
O        6.12366753      13.12982727       6.01236278  T        0
O       15.69756066       5.79249316       1.70623426  T        0
O       12.91862368       1.28161270       5.29049433  T        0
O        3.44558495       8.49142522       1.70913644  T        0
O        6.12585375       1.14874587       6.00726900  T        0
O       15.69694827       8.48271065       1.70164693  T        0
O        7.20982094       3.46450517       2.45246832  T        0
O       17.12670723      10.70794042       6.14379355  T        0
O       11.89930984       3.41453396       2.50692363  T        0
O        1.96188395      10.76775028       6.11676886  T        0
O        7.20810366      10.81171168       2.45313099  T        0
O       17.12718743       3.56695202       6.15003222  T        0
O       11.89981027      10.86287401       2.50613543  T        0
O        1.95635155       3.51030150       6.08680889  T        0
O       11.86890533      10.61387896       5.15884840  T        0
O        1.95814661       3.56127687       1.41784680  T        0
O        7.20881327      10.80150542       5.07913933  T        0
O       17.12907000       3.50182596       1.44390402  T        0
O       11.86974926       3.66427732       5.15950090  T        0
O        1.95366436      10.72597829       1.42603982  T        0
O        7.20700874       3.48098925       5.07787392  T        0
O       17.12894609      10.77307937       1.44323857  T        0
O        6.62070211       3.29864756      -0.05146859  T        0
O       16.02147875      10.15354547       3.79389938  T        0
O       12.42787300       3.21669685      -0.04673711  T        0
O        3.01133311      10.11475740       3.78882535  T        0
O        6.59259754      10.96337534      -0.04648725  T        0
O       16.02516320       4.11926707       3.79651487  T        0
O       12.42612977      11.06123913      -0.04759170  T        0
O        3.02889947       4.16789866       3.77519595  T        0
O        4.62457973       3.38898004       1.76590934  T        0
O       14.45395910      10.85431741       5.89449601  T        0
O       14.45945198       3.40257672       1.76131181  T        0
O        4.63199519      10.88830772       5.76835057  T        0
O        4.61865788      10.89500692       1.79180699  T        0
O       14.45472955       3.42161466       5.89568401  T        0
O       14.45930763      10.87313967       1.75757141  T        0
O        4.63023329       3.38833071       5.76671877  T        0
O       11.17553037       8.47151222       3.61654606  T        0
O        7.83346267       8.51555223       3.73715346  T        0
O       11.17446279       5.80680016       3.61588908  T        0
O        7.83231027       5.76443877       3.72993035  T        0
O        9.54524803      10.54315802       3.76759255  T        0
O        9.54489790       3.73636495       3.76939169  T        0
O       13.33270051       7.13649972       5.21023285  T        0
O        5.57007261       7.13787449       5.08662659  T        0
O        5.74945856       7.14978713       2.25786023  T        0
O       13.47596248       7.13837456       2.40207538  T        0
O       14.14123574       7.13381194      -0.08200778  T        0
O        4.93983268       7.15243299      -0.13031447  T        0
Si       6.11740499       2.79627203       1.44698137  T        0
Si      15.79785883      10.03602541       5.42012113  T        0
Si      12.98165749       2.78130893       1.44577794  T        0
Si       3.27004423      10.04990503       5.41622004  T        0
Si       6.10982011      11.48015587       1.45347050  T        0
Si      15.79989689       4.23838810       5.42264878  T        0
Si      12.98159066      11.49564454       1.44447394  T        0
Si       3.27271141       4.22946827       5.40407450  T        0
Si      12.96002158      11.50309202       6.01670075  T        0
Si       3.27144448       4.21200200       2.16537049  T        0
Si       6.12473562      11.47567654       6.10114979  T        0
Si      15.82017427       4.22136084       2.16254860  T        0
Si      12.96045070       2.77362089       6.01696167  T        0
Si       3.26242684      10.07229413       2.17976381  T        0
Si       6.12389521       2.80284384       6.09856268  T        0
Si      15.81905202      10.05335379       2.15970538  T        0
Si      11.14148888      10.12849172       3.75966832  T        0
Si       7.95215165      10.16072247       3.77202572  T        0
Si      11.14148857       4.14971052       3.76047057  T        0
Si       7.95177373       4.11897221       3.77021883  T        0
Si      14.66363579       7.13695849       6.11063317  T        0
Si       4.33395120       7.13817469       6.11312650  T        0
Si       4.31181012       7.14611773       1.46078271  T        0
Si      14.76061273       7.13696237       1.44896955  T        0
Al      12.41361820       7.13862084       3.75129259  T        0
Al       6.70454155       7.14063484       3.81565574  T        0
O        6.65906970       3.23916405       7.59032071  T        0
O       12.50178039       2.62230117       7.60056476  T        0
O        6.66061882      11.03952315       7.59267236  T        0
O       12.49976344      11.65169627       7.59993370  T        0
O       14.08589937       7.13626756       7.66516622  T        0
O        4.98314301       7.13687010       7.62832960  T        0
O        3.31261429       8.40397432      -1.97036952  T        0
O        3.29337734       5.85158079      -1.91658512  T        0
O        7.73541116       8.38471470      -3.76124337  T        0
O        7.41111556       5.72130570      -4.18105793  T        0
O        5.66550064       7.07539594      -2.61471099  T        0
O        5.70833498       7.51687261      -5.29130051  T        0
Si       4.30972413       7.12598948      -1.71086939  T        0
Si       6.63297708       7.16457660      -3.96367554  T        0
H        5.61083456       0.52083913       2.07985367  F        0
H       13.50938118       0.51971906       2.07492992  F        0
H        5.61112307      13.75835362       2.07975607  F        0
H       13.50958039      13.75682243       2.07498241  F        0
H       13.51084140      13.75504172       5.44776650  F        0
H        5.62495998      13.75277707       5.44935724  F        0
H       13.50975252       0.52161770       5.44778410  F        0
H        5.62509051       0.52255101       5.44942550  F        0
H       17.28974254      11.12548174       7.01862795  F        0
H        1.83343022      11.12554006       7.01950242  F        0
H       17.28979000       3.14560285       7.02339196  F        0
H        1.81954193       3.15353441       6.98813474  F        0
H        1.83183800       3.14857954       0.53722786  F        0
H       17.29134854       3.14797220       0.53999843  F        0
H        1.83154049      11.12909684       0.54034962  F        0
H       17.29120144      11.12876736       0.54010345  F        0
H        6.35952436       2.97904956      -0.93427223  F        0
H       12.76076393       2.97683097      -0.93375646  F        0
H        6.36236324      11.29726414      -0.93275871  F        0
H       12.76174962      11.29928001      -0.93393629  F        0
H       14.60982961       7.13673871      -0.92783774  F        0
H        6.35949513       2.97597070       8.47938261  F        0
H       12.76321398       2.97604733       8.47995589  F        0
H        6.35946036      11.30224636       8.48133548  F        0
H       12.76333233      11.30075111       8.47967776  F        0
H       14.61405599       7.13800201       8.47661577  F        0
H        4.50898861       7.14016697       8.47499567  F        0
H        3.36611374       9.37433505      -2.09115109  F        0
H        3.36064390       4.89097090      -2.09366187  F        0
H        7.80714812       9.37398274      -3.78410482  F        0
H        7.80677964       4.90364681      -3.78479629  F        0
H        4.87243006       7.14046961      -5.64294599  F        0
Fe       7.08197567       7.16620009       0.64688524  T        0
Fe       9.55763586       7.14068055       2.89740168  T        1
O        8.79776706       7.15519625       1.15317251  T        2
