142
Lattice="19.123 0.0 0.0 0.0 14.277 0.0 0.0 0.0 7.5465" Properties=species:S:1:pos:R:3:move_mask:L:1:tags:I:1 i=128 E=-2603.9155142701 regions="_JSON [\"Active\"]" n_terminators=34 energy=-950.0768753596486 pbc="F F F"
O        6.00979980       1.14631019       1.44469202  T        0
O       15.65068995       8.43165217       5.87648591  T        0
O        3.55967286       8.49964483       5.68853245  T        0
O        6.06658597      13.15190805       1.46596012  T        0
O       15.91276875       5.81268893       5.74624135  T        0
O       13.12191820      13.13257101       1.43431142  T        0
O        3.53322307       5.82401730       5.79342859  T        0
O       13.24863276      13.16367422       6.17875860  T        0
O        3.29778045       5.80641308       1.60854164  T        0
O        6.14000396      13.17099026       6.03973265  T        0
O       15.84835025       5.86963232       2.07448362  T        0
O        3.31290192       8.52346624       1.66872411  T        0
O        6.22947619       1.24531902       5.23133262  T        0
O       15.66165440       8.48741049       1.66484707  T        0
O        7.24271479       3.36538682       2.52446990  T        0
O       17.28607720      10.53728316       6.23559458  T        0
O       12.12338513       3.09904020       2.81910192  T        0
O        1.98434007      10.66506575       6.16567995  T        0
O        7.31760368      10.93105281       2.44600811  T        0
O       11.96326279      10.76632122       2.15807745  T        0
O        2.33195442       3.45099732       6.21157668  T        0
O       12.14439518      10.94115761       5.00464704  T        0
O        2.01617978       3.42932533       1.45839529  T        0
O        7.21048364      10.85663041       5.06497608  T        0
O       11.58560033       3.51921048       5.34296283  T        0
O        2.03114550      10.90927658       1.47070424  T        0
O        7.56539136       3.39719992       5.22625741  T        0
O       17.24049122      10.65360028       1.39835158  T        0
O        6.72616995       3.20245331      -0.05464078  T        0
O       16.29880586       9.98102132       3.81404021  T        0
O        3.05269868      10.22697389       3.76646483  T        0
O        6.72015136      11.07054282      -0.05729209  T        0
O       13.32238868      11.01959547      -0.19368897  T        0
O        3.11767197       4.16150132       3.74847052  T        0
O        4.70568832       3.51276667       1.71562564  T        0
O       14.68568085      10.93838088       5.77353052  T        0
O        4.63177752      10.95917105       5.80542655  T        0
O        4.72117771      10.81657398       1.78162249  T        0
O       14.62675497      10.96178614       2.03556711  T        0
O        4.92377528       3.55637769       5.64151879  T        0
O       11.52280982       8.30639708       3.85663933  T        0
O        7.65185597       8.53609056       3.72678553  T        0
O       11.67529124       5.66290993       3.66848275  T        0
O        7.53889954       5.65783719       3.97955103  T        0
O        9.56475884      10.16067974       3.88055775  T        0
O        9.62725043       3.98275112       3.60993152  T        0
O       13.54218603       6.96124238       5.07583413  T        0
O        5.85556860       7.12583539       5.43339763  T        0
O        5.42047487       7.13250114       2.51109450  T        0
O       13.48086789       7.13935362       2.39563307  T        0
O       14.40801832       6.74175251      -0.05571866  T        0
O        4.93540165       7.20324163      -0.05822016  T        0
Si       6.14591410       2.79208354       1.43700911  T        0
Si      15.95722531       9.98343424       5.42327347  T        0
Si       3.31141640      10.08699454       5.37537139  T        0
Si       6.16395459      11.49928182       1.42818794  T        0
Si      13.20584343      11.47227030       1.39581670  T        0
Si       3.47199976       4.24407168       5.34831929  T        0
Si      13.17181687      11.50237944       6.10398301  T        0
Si       3.29729180       4.24034499       2.11730535  T        0
Si       6.14094628      11.51545884       6.10759682  T        0
Si       3.29240512      10.09340313       2.14911846  T        0
Si       6.28170510       2.71608448       6.00066279  T        0
Si      15.94680192      10.02277215       2.20974626  T        0
Al      11.36738186      10.15989285       3.67385696  T        0
Si       7.91975810      10.16799888       3.75550244  T        0
Si      11.25180622       4.08290327       3.82930443  T        0
Si       7.99451389       4.08626287       3.78957684  T        0
Si      14.84088882       7.02922842       6.08003163  T        0
Si       4.37807980       7.17054770       6.17822026  T        0
Si       4.22984426       7.16209545       1.43558362  T        0
Si      14.86047897       7.07113987       1.50011614  T        0
Si      12.58248875       7.02876019       3.75436088  T        0
Al       6.56483730       7.13606242       3.76564013  T        0
O        6.11403927       1.28509225       9.95772810  T        0
O        3.42748217       5.82206463       9.70486962  T        0
O        3.18371780       8.43573375       9.76718127  T        0
O        7.38943084       3.52587582      10.06904599  T        0
O       11.78845005       3.17537907      10.17819285  T        0
O        2.19871412       3.53687613       8.87228882  T        0
O       11.78374831       3.79938688      12.84117693  T        0
O        7.53481225       3.45490265      12.79989599  T        0
O        6.46885275       2.48719038       7.61309823  T        0
O        6.68088930      11.05775609       7.59504677  T        0
O       12.66043880      10.95420725       7.57718606  T        0
O        2.93237429       3.76691162      11.38687239  T        0
O        4.79701576       3.57248700       9.40462873  T        0
O        1.80823534       1.14809165       7.58822352  T        0
O        7.78893384       8.40452427      11.45444358  T        0
O       11.94511718       5.74173385      10.90787011  T        0
O        7.40485983       5.80811528      11.48163966  T        0
O       -0.01609453       3.12758607       7.35572691  T        0
O        9.63462837       4.29806420      11.36166287  T        0
O        5.77589478       7.42844804      12.93562193  T        0
O        5.59710866       7.33699029      10.23663027  T        0
O       14.23030107       6.89797329       7.60991820  T        0
O        4.60751954       7.28659766       7.78320682  T        0
Si       6.21045881       2.76972412       9.22089503  T        0
Si       3.35389419       4.18512157       9.84273977  T        0
Si       1.58654028       2.79707249       7.52843708  T        0
Si      11.29311611       4.27012926      11.32353648  T        0
Si       7.97961328       4.26465997      11.41943482  T        0
Si       4.22422050       7.20998667       9.36517740  T        0
Si       6.61785087       7.23964614      11.51461890  T        0
H        5.61083456       0.52083913       2.07985367  F        0
H        5.61112307      13.75835362       2.07975607  F        0
H       15.75636517       4.89339805       5.45628994  F        0
H       13.50958039      13.75682243       2.07498241  F        0
H       13.51084140      13.75504172       5.44776650  F        0
H        5.62495998      13.75277707       5.44935724  F        0
H       15.75706449       4.89440344       2.08043705  F        0
H        5.62509051       0.52255101       5.44942550  F        0
H       17.28974254      11.12548174       7.01862795  F        0
H       12.44565577       3.15588527       1.90033815  F        0
H        1.83343022      11.12554006       7.01950242  F        0
H        1.83183800       3.14857954       0.53722786  F        0
H       12.44354748       3.15657450       5.63339447  F        0
H        1.83154049      11.12909684       0.54034962  F        0
H       17.29120144      11.12876736       0.54010345  F        0
H        6.35952436       2.97904956      -0.93427223  F        0
H        6.36236324      11.29726414      -0.93275871  F        0
H       12.76174962      11.29928001      -0.93393629  F        0
H       14.60982961       7.13673871      -0.92783774  F        0
H        4.51175007       7.13509558      -0.92932085  F        0
H        5.61083456       0.52083913       9.62635367  F        0
H        3.36626427       9.38386245       9.62662257  F        0
H       12.44565577       3.15588527       9.44683815  F        0
H       12.44354748       3.15657450      13.17989447  F        0
H        6.67493943       3.16061899      13.17960767  F        0
H        6.35946036      11.30224636       8.48133548  F        0
H       12.76333233      11.30075111       8.47967776  F        0
H        3.19279804       4.15795734      12.24400931  F        0
H        2.56244240       0.51556882       7.54734209  F        0
H        7.80714812       9.37398274      11.30889518  F        0
H       12.12599848       6.62134464      11.30909695  F        0
H       -0.96435880       2.93479999       7.54732830  F        0
H        4.87489857       7.13453431      13.17640583  F        0
H       14.61405599       7.13800201       8.47661577  F        0
Fe       7.50066629       6.09306687       6.25114263  T        0
Fe       9.60371136       8.06548111       4.66241012  T        1
O        6.88007783       5.13613077       7.52465465  T        2
O        9.02226955       7.09049401       6.11367329  T        3
