138
Lattice="24.397 0.0 0.0 0.0 24.397 0.0 0.0 0.0 24.397" Properties=species:S:1:pos:R:3:move_mask:L:1:tags:I:1 i=41 E=-6943.8331748197 regions="_JSON [\"Active\"]" n_terminators=30 energy=-941.7590789386367 pbc="F F F"
O       21.67996749       2.39262714       0.11389824  T        0
O       21.79834229       6.07310838       3.47541684  T        0
O       15.55254956       9.69240341       6.25511937  T        0
O       20.99165002      12.52086138       3.60678897  T        0
O       20.98947586       3.62645220      12.54364021  T        0
O       15.52246481       6.32881414       9.76725688  T        0
O       21.75075745       0.25662455       2.36246609  T        0
O       18.33646178       9.60463019       3.32203757  T        0
O       21.80638405       3.49838813       5.88512219  T        0
O       18.30499592       3.29889357       9.58670551  T        0
O       23.86331310       1.73265086       1.73160548  T        0
O       22.77229057       5.32561008       7.96195795  T        0
O       22.61051137       7.94614109       5.24381087  T        0
O       17.61773065      10.55115077       7.85123914  T        0
O       20.03852278      10.56168756       5.19574303  T        0
O       23.69925004       4.31628586       4.23984811  T        0
O       17.65702317       7.89125879      10.52011480  T        0
O       20.00909943       5.16051666      10.56697426  T        0
O       20.81596548       5.93269772       5.79605921  T        0
O       18.11879825       8.87818406       5.93454041  T        0
O       21.94363131      12.23960508       6.15008495  T        0
O       20.94634320      -0.10678985      -0.13273068  T        0
O       24.36191848       2.68583627       6.26452773  T        0
O       24.34284875       6.30176716       2.59828981  T        0
O       18.05953162       5.90955716       8.91651776  T        0
O       21.92082063       6.16683615      12.21823010  T        0
O       22.71382477       4.32179312       1.75389434  T        0
O       22.60411866       4.39392419      10.48736794  T        0
O       20.09546137       8.01394476       4.32699788  T        0
O       16.61581313       8.01342191       8.01515280  T        0
O       22.59839041      10.48111652       4.38463231  T        0
O       22.89952705       1.74036091       4.23862427  T        0
O       20.01638664       4.36968287       7.98197230  T        0
Al      23.30975771       3.04692866       0.70956030  T        0
Si      23.60398881       4.83232347       9.25756187  T        0
Si      21.34757151       7.06659484       4.74331580  T        0
Si      16.96056192       9.27924671       7.02593174  T        0
Si      21.35846634      11.46752960       4.82525276  T        0
Si      23.27406112       0.84025612       2.92118884  T        0
Si      19.13532245       9.28044974       4.72569786  T        0
Al      21.40073786       4.80572431       7.07998511  T        0
Si      23.55820736       9.23075080       4.81685969  T        0
Si      23.22251989       3.04781199       5.17417437  T        0
Si      19.11531388       4.70141492       9.26036588  T        0
Si      23.17695491       5.24291769       2.98381149  T        0
Si      21.34693372       4.82561914      11.45600788  T        0
Si      16.95219201       7.02932356       9.30076135  T        0
O       27.00325333       8.66478266       6.12483941  T        0
O       24.51462880       3.51817694       8.82298674  T        0
O       27.07202417       6.14750961       8.67917259  T        0
O       24.48186127       8.78890116       3.53624707  T        0
O       25.25841115       8.02696095       8.07580547  T        0
O       26.38450871       6.96998968       4.13612059  T        0
O       26.42537290       4.13218406       7.00961169  T        0
O       24.49597667       9.60136048       6.08971431  T        0
O       24.61313447       6.03385810       9.73635319  T        0
O       27.90659551       6.14084903       6.13556514  T        0
O       26.30564613      10.52760528       7.86196465  T        0
O       28.88463958       7.95971815       4.39063666  T        0
O       26.38247443       7.91037244      10.52698214  T        0
O       26.16899397       8.03938733       1.65155685  T        0
O       28.94173296       4.42173425       7.93653719  T        0
O       26.12839178       1.61951666       7.99217528  T        0
Si      25.76220651       9.20371536       7.05530879  T        0
Si      25.81383765       7.02919177       9.25973243  T        0
Si      25.36273090       7.51946130       2.98641949  T        0
Si      27.58361781       5.20786897       7.44119127  T        0
Si      27.55164125       7.42914222       5.19782605  T        0
Si      25.36328084       3.00134962       7.52869593  T        0
O       24.72423559       2.42162335      -2.88912917  T        0
O       26.19805686       1.76443440      -0.72504750  T        0
O       24.39103289      -0.14751526      -3.66487879  T        0
O       26.54702530       4.15798549      -2.05666455  T        0
Si      25.47092090       3.01497031      -1.53595241  T        0
O       24.69770241      -2.79988194       2.39148080  T        0
O       26.34248444      -0.66131200       1.90182664  T        0
O       24.36856278      -3.62488270      -0.15597272  T        0
O       26.24165586      -1.95079222       4.33701524  T        0
Si      25.41203066      -1.45199441       3.00652237  T        0
O       17.97008563       2.38552485      -3.45730040  T        0
O       21.01202721       2.54208486      -6.42680177  T        0
O       20.00788550       0.96220252      -4.53510762  T        0
O       22.71110671       0.95756447      -1.87306365  T        0
O       24.37610697       3.59812387      -0.51001136  T        0
O       18.40592568      -0.19425600      -2.70714017  T        0
O       21.94735959      -0.02802705      -6.16008899  T        0
O       20.09679264       1.64345982      -1.95622958  T        0
O       22.61553322       1.71090455      -4.40907475  T        0
Si      19.10041460       1.20842026      -3.19678410  T        0
Si      21.37012204       1.30021871      -5.39279207  T        0
Si      23.63554464       1.24334732      -3.21443572  T        0
Si      21.35944616       1.21835969      -1.01612045  T        0
O       18.08116931      -3.41280209       2.55139129  T        0
O       20.98244618      -6.38098940       2.49340141  T        0
O       22.68780737      -1.82128960       0.95567836  T        0
O       19.99702788      -4.41326705       0.94004447  T        0
O       24.22775335      -0.38431571       3.39537981  T        0
O       18.29362470      -2.53503940      -0.04065131  T        0
O       21.85825695      -6.07998111      -0.09215824  T        0
O       20.09428390      -1.83826945       1.70341364  T        0
O       22.59435416      -4.36954716       1.68673796  T        0
Si      21.36136697      -0.92876939       1.21830662  T        0
Si      21.32471006      -5.32945545       1.26457723  T        0
Si      23.60120927      -3.16630153       1.22289568  T        0
Si      19.09148790      -3.09004921       1.28247730  T        0
H       15.43757914      10.38640764       5.57209357  F        0
H       20.10951523      12.72546585       3.23923157  F        0
H       20.10951519       3.23923103      12.72546793  F        0
H       15.43757911       5.57209275      10.38640946  F        0
H       17.77043279      10.38640226       3.23924444  F        0
H       17.77043311       3.23924387      10.38640412  F        0
H       17.22544067      10.92750153       8.65411313  F        0
H       17.22544070       8.65411150      10.92750362  F        0
H       21.54216027      12.99764967       6.60187561  F        0
H       21.54216028       6.60187434      12.99765198  F        0
H       25.88537327      10.95404844       8.63278900  F        0
H       29.25185888       7.58759487       3.56561113  F        0
H       25.88537328       8.63278754      10.95405052  F        0
H       26.93058105       7.58756876       1.24433203  F        0
H       29.25185918       3.56561063       7.58759619  F        0
H       26.93058086       1.24433163       7.58757011  F        0
H       26.95192867       1.27083937      -1.07240246  F        0
H       25.19622735      -0.50276655      -3.24494277  F        0
H       26.93057835       4.85486043      -1.48866112  F        0
H       26.95192866      -1.07240650       1.27083969  F        0
H       25.19622853      -3.24494603      -0.50276481  F        0
H       26.93057847      -1.48866524       4.85486109  F        0
H       17.77043356       2.85994955      -4.28747201  F        0
H       20.10952426       2.85994950      -6.62656333  F        0
H       17.49833355      -0.50278089      -2.85477948  F        0
H       21.54221652      -0.50278066      -6.89866328  F        0
H       17.77043326      -4.28747560       2.85995000  F        0
H       20.10952426      -6.62656664       2.85995001  F        0
H       17.49833238      -2.85478383      -0.50277915  F        0
H       21.54221602      -6.89866750      -0.50277915  F        0
Fe      20.77836831       2.27735668       1.92214462  T        0
Fe      20.51256944       4.32535358       4.41668902  T        0
O       19.83367459       3.17651038       3.17050068  T        0
