142
Lattice="20.102 0.0 0.0 0.0 19.731 0.0 0.0 0.0 13.253" Properties=species:S:1:pos:R:3:move_mask:L:1:tags:I:1 i=77 E=-3472.0240129048 regions="_JSON [\"Active\"]" n_terminators=30 energy=-979.5317062627688 pbc="F F F"
O       10.09094968       8.37551303       9.41491813  T        0
O       10.14891078      10.62639897       3.65110345  T        0
O        2.29192263      11.50295602       3.91499766  T        0
O        7.68435737       8.75868045      10.50755479  T        0
O       12.63434121      11.46853982       2.90379409  T        0
O        7.96728327       7.09467560       8.48636898  T        0
O       11.72406394      16.87343214       4.81043994  T        0
O       11.48119563      12.35830903       5.10196812  T        0
O        8.24873783       9.73249457       8.08396560  T        0
O       12.33532611       9.81144934       4.99765926  T        0
O        3.52103741      10.81056209       6.09732904  T        0
O        6.54931572       8.66963020      12.82235641  T        0
O        3.49732004       9.08394675       4.05002613  T        0
O        6.11066211      10.80907660      11.21967728  T        0
O       17.04328101      10.64783278       9.15455650  T        0
O       17.05927229      18.93762826       9.10656322  T        0
O        4.98073930      11.32709441       3.93208218  T        0
O        5.00104116       8.50813474      10.60536869  T        0
O        3.72112808      12.35575761       8.21963928  T        0
O        6.10609206       7.33977305       1.30530669  T        0
O       14.21734441      17.10007226      12.05678445  T        0
O       14.44761837      12.51552388      12.06584683  T        0
O        5.89021573      11.15788539       7.23573230  T        0
O        3.88723112       8.34669205       0.29479919  T        0
O       14.27053579       8.70275361       6.55783861  T        0
O        3.97903554       9.74596251       8.48219505  T        0
O        5.41729137       9.91655284       1.82408166  T        0
O        8.41479526      12.59554729       7.75006375  T        0
O        7.81155516      17.19042238       7.73346403  T        0
O       12.27924760       7.21048022       5.44317003  T        0
O        8.47008438      11.11014803       5.63857116  T        0
O       11.84658219       8.91892933       7.47129272  T        0
O        7.52172528      10.91940643       3.15796975  T        0
O        2.38698182       8.17479995      10.00894000  T        0
O       12.60735047       8.21873471       9.99784748  T        0
O        8.42956489       8.73791529       4.36939947  T        0
O       11.49497366      10.63406521       9.49834406  T        0
O       11.95108720      19.03589559       9.55305874  T        0
O        6.11531128      12.58216725       1.77959648  T        0
O        4.17745597       7.06320870       8.52430911  T        0
O       16.21364920      17.05999959       4.54754010  T        0
O       16.30226972      12.48638436       4.55623780  T        0
O       10.01167189      17.16311250       9.35439207  T        0
O       10.05391815      12.91518086       9.78628929  T        0
O       10.13466004       6.69786910       3.87691339  T        0
O        7.66792610      17.11114404      10.48162271  T        0
O        2.19390726       6.75263572       3.81150345  T        0
O        7.42696919      12.88491035      10.19202162  T        0
O       17.88024824      13.13239148       9.41311986  T        0
O       12.41413715       7.07044480       2.74443122  T        0
O       17.77288973      16.41407817       9.43084377  T        0
O        8.50991604      14.99009092       8.96799205  T        0
O       12.11356231       4.82982368       4.22991106  T        0
O        3.65085278       7.20917410       5.93714857  T        0
O        6.52514180      13.07653940      12.62565919  T        0
O       16.59624766      12.53880284       7.21456969  T        0
O       16.46882254      17.03161896       7.23414586  T        0
O        4.90288712       6.86324703       3.61847077  T        0
O        4.78850140      13.00684702      10.59504870  T        0
O       15.21125374      12.60599585       9.48125802  T        0
O       15.13609334      17.08134917       9.52558649  T        0
O        3.87299459       4.81692427       7.02700830  T        0
O       15.90964359      14.77942649       5.88350117  T        0
O        6.03683470       6.42155223       6.74569681  T        0
O       14.17412059      12.72630092       6.17183589  T        0
O       14.08063049      16.76391033       6.14190505  T        0
O        7.85468605       4.63249919       7.59895751  T        0
O       12.18541844      14.88184677       6.38878550  T        0
O        8.51156534       6.59136141       5.90654990  T        0
O       11.55645652      12.52815945       7.65473773  T        0
O       11.85884217      17.32674879       7.45585427  T        0
O        7.53330548       6.44281024       3.40722431  T        0
O        2.19457303      13.43916575      10.15806078  T        0
O       12.67423727      12.93869312      10.06787749  T        0
O       12.56971892      16.55120646       9.93911045  T        0
O        4.00710391      14.88546041       8.80773946  T        0
O        5.85291390       4.81264588       2.12838724  T        0
O       14.39339225      14.81842438      10.78889959  T        0
Si       8.48795570       8.51751465       9.10614572  T        0
Si      11.66138960      11.02719571       4.14336680  T        0
Si       3.58182192      10.65855946       4.48642288  T        0
Si       6.32378761       9.18961827      11.28208761  T        0
Si       4.31524051      11.01050645       7.50585487  T        0
Si       5.44135569       8.72547046       0.72066800  T        0
Al       7.58285821      11.05609110       7.22832866  T        0
Si      12.68509773       8.65423515       6.10275852  T        0
Si       8.62690246      10.33403070       4.18672683  T        0
Si      11.52801325       9.04900652       9.08034995  T        0
Si       5.99034829      11.19639894       2.65097638  T        0
Si       3.89703980       8.40672812       9.40131701  T        0
Si       8.48754300      16.62424830       9.13289934  T        0
Si       8.59760012      13.38396317       9.19950750  T        0
Si      11.72908295       6.42565287       4.10168550  T        0
Si       3.57126822       7.47635391       4.33453741  T        0
Si       6.20260568      12.42513838      11.15083465  T        0
Si      16.65986483      12.21858262       8.81018651  T        0
Si      16.58913423      17.37787301       8.82547659  T        0
Si       4.44121143       6.35872022       7.08151973  T        0
Si      15.72213819      13.14617102       5.95917444  T        0
Si      15.66089804      16.39608417       5.95394165  T        0
Si       7.58586967       6.20668817       7.19345429  T        0
Al      12.55108543      13.21348078       6.31249184  T        0
Si      12.47689063      16.44905863       6.21228190  T        0
Si       8.64556842       7.12472476       4.38037591  T        0
Si      11.45701539      12.24461367       9.27373017  T        0
Si      11.58376413      17.50756597       9.05356011  T        0
Si       6.09476790       6.36383057       2.62949138  T        0
Si       3.68594852      13.40952520       9.45136218  T        0
Si      14.19316307      13.21557703      10.59596681  T        0
Si      14.07950058      16.40898036      10.56857322  T        0
O        6.35209870       9.40859950      -0.45835074  T        0
H        1.81269882      11.30123319       3.09859993  F        0
H       13.03074804      10.85204106       2.26762503  F        0
H       11.77741499      17.76721957       4.45015374  F        0
H        6.01931354       8.91222751      13.59787507  F        0
H       16.64303307       9.81912404       8.84117322  F        0
H       16.64304187      19.77694965       8.84122497  F        0
H       14.40563884      18.04556895      12.19637069  F        0
H       14.40563885      11.55048737      12.19637067  F        0
H        3.12887899       8.92429365       0.49683426  F        0
H       15.03932990       8.88569483       5.99268334  F        0
H        7.69777211      18.11826613       7.44841170  F        0
H        1.92726146       8.79770260      10.59110356  F        0
H       13.54926599       8.42132791      10.11787432  F        0
H       11.52310955      19.83515307       9.21116341  F        0
H        5.53537813      12.95496052       1.09262639  F        0
H       15.87290964      17.87210703       4.12309272  F        0
H       15.87290964      11.72394929       4.12309273  F        0
H        6.74596320      16.92620537      10.74076342  F        0
H        2.04924741       6.48050321       2.89306910  F        0
H       18.05303808      13.25020103      10.35989921  F        0
H       13.35632228       7.06085325       2.51220488  F        0
H       18.05303809      16.34585533      10.35989921  F        0
H       11.61525895       4.01919395       4.45233654  F        0
H        5.86807409      12.98161584      13.33116226  F        0
H        4.37526294       4.01828352       7.26036481  F        0
H        7.92514400       4.01763560       6.85279547  F        0
H        1.73086689      12.60761804      10.35624453  F        0
H        4.05997682      15.72757570       9.28699687  F        0
H        5.99116592       4.00312854       2.66051272  F        0
H        6.58577874       9.14969547      -1.35751146  F        0
Fe       9.92592462      12.31871709       6.42769747  T        1
