135
Lattice="24.397 0.0 0.0 0.0 24.397 0.0 0.0 0.0 24.397" Properties=species:S:1:pos:R:3:move_mask:L:1:tags:I:1 i=41 E=-6943.8331748197 regions="_JSON [\"Active\"]" n_terminators=32 energy=-907.9970281833787 pbc="F F F"
O       21.65166601       2.57199870       0.11652610  T        0
O       21.89702006       6.19061223       3.47754968  T        0
O       15.71237376       9.77523339       6.20468342  T        0
O       20.83295839      12.34514730       3.63614566  T        0
O       21.00665168       3.55011198      12.48727088  T        0
O       15.51161639       6.32499145       9.76558095  T        0
O       21.87641376      -0.15422224       2.54410718  T        0
O       18.29682838       9.77625717       3.55250523  T        0
O       21.79188137       3.53769957       5.96039224  T        0
O       18.39448184       3.29391082       9.65160891  T        0
O       23.74235122       1.62379896       1.79511425  T        0
O       22.83695694       5.42637250       8.01776595  T        0
O       22.62563961       7.99116316       5.33810261  T        0
O       17.67866598      10.50262022       7.91211246  T        0
O       20.16515041      10.46359989       5.37547654  T        0
O       23.65954569       4.28044563       4.24834765  T        0
O       18.87317543      14.13337045       4.27390426  T        0
O       16.30553805      11.46228631       4.18105947  T        0
O       17.64808246       7.87105897      10.55178914  T        0
O       20.06206884       5.21021069      10.59511086  T        0
O       20.86861094       5.97563604       5.83759790  T        0
O       18.20319874       8.78131420       6.03367593  T        0
O       22.01533694      12.32433950       6.08844793  T        0
O       20.92109326       0.00679340       0.04427389  T        0
O       24.33076863       2.65067692       6.26797057  T        0
O       24.41749466       6.23149587       2.57829184  T        0
O       18.31638931      12.25774166       2.59989251  T        0
O       14.61760067      12.26114345       6.14323239  T        0
O       18.05738869       5.88855952       8.96286457  T        0
O       21.98278988       6.09978790      12.29504311  T        0
O       22.66499330       4.32748551       1.78244582  T        0
O       13.83354334      10.40021166       4.40896003  T        0
O       22.64887291       4.38129681      10.49724990  T        0
O       20.12060310       8.02057187       4.32193057  T        0
O       16.60710638       7.99797277       8.04147622  T        0
O       22.65635145      10.48181466       4.37145852  T        0
O       20.20173914      14.07857356       1.83516715  T        0
O       16.58121031      10.40465529       1.67717773  T        0
O       22.72734720       1.75201452       4.26562590  T        0
O       20.06339534       4.42298804       8.02128583  T        0
Al      23.32963013       2.96990234       0.78341796  T        0
Si      23.66652252       4.87596467       9.30177294  T        0
Si      21.38805612       7.10338364       4.76702197  T        0
Si      17.01799112       9.24967165       7.06083181  T        0
Si      21.39816113      11.42236711       4.86570018  T        0
Si      23.18302683       0.74960582       3.03389957  T        0
Si      19.18355491       9.27382719       4.82523609  T        0
Al      21.46421981       4.88312460       7.15006814  T        0
Si      23.59867298       9.24385166       4.87661447  T        0
Si      23.16795781       3.02093045       5.19881899  T        0
Si      17.34888737      10.99643556       3.00343717  T        0
Si      19.15625835       4.72047642       9.30910764  T        0
Si      15.13634993      10.98331730       5.23645731  T        0
Si      19.55567625      13.21718584       3.07805480  T        0
Si      23.19232093       5.26272422       3.02821313  T        0
Si      21.39145652       4.80407581      11.47362177  T        0
Si      16.95075006       7.01728354       9.32378638  T        0
O       24.58263475       3.59852742       8.78657857  T        0
O       24.56801517       8.70269922       3.66580110  T        0
O       26.33619487       6.70622502       4.24262497  T        0
O       26.30302328       4.25085812       6.73790060  T        0
O       24.47104494       9.80314747       6.14782620  T        0
O       24.65893666       6.03935258       9.92737092  T        0
O       26.28351961       8.04251510       1.81557859  T        0
O       26.23941167       1.78378137       8.01176036  T        0
Si      25.42353641       7.43130039       3.07653106  T        0
Si      25.38673457       3.07838536       7.46242586  T        0
O       24.70683945       2.38174122      -2.77168808  T        0
O       26.30219554       1.83825518      -0.63985474  T        0
O       24.31953866      -0.18823780      -3.52880980  T        0
O       26.47462433       4.20152018      -2.05334815  T        0
Si      25.48036926       3.02264275      -1.45819402  T        0
O       18.13964641       2.39464310      -3.61068977  T        0
O       20.81581896       2.41544178      -6.23218234  T        0
O       20.09187270       0.70897359      -4.32431800  T        0
O       22.65927038       0.99831126      -1.75242838  T        0
O       18.87088288       1.85037856      -8.05655878  T        0
O       16.30188213       1.87350113      -5.54520969  T        0
O       24.42969551       3.58262803      -0.37102527  T        0
O       18.26964411      -0.06805856      -2.46290907  T        0
O       21.95543000      -0.05865398      -6.14309477  T        0
O       18.32363009       3.45815143      -6.08188141  T        0
O       20.04766673       1.69854707      -1.83761367  T        0
O       22.60043315       1.66765467      -4.32307333  T        0
O       20.15469932       4.29971992      -7.91665676  T        0
O       16.49564550       4.31286411      -4.25598118  T        0
Si      19.11811105       1.18722874      -3.09363135  T        0
Si      21.34937520       1.19342970      -5.27223715  T        0
Si      23.59400396       1.22067215      -3.09561681  T        0
Si      19.54215195       3.01247628      -7.08968178  T        0
Si      21.30942792       1.28651242      -0.88995916  T        0
Si      17.29680947       3.01635223      -4.88090485  T        0
O       17.92396187      -3.44887934       2.37928540  T        0
O       22.63503716      -1.88252634       0.57751404  T        0
O       19.89458285      -4.69221979       1.15161851  T        0
O       24.30732566      -0.22131904       3.74511788  T        0
O       18.42685263      -2.81792788      -0.20646745  T        0
O       20.14456706      -2.02190380       1.63159777  T        0
Si      21.38289878      -1.02138231       1.23204657  T        0
Si      19.10030176      -3.24216002       1.23477146  T        0
H       20.10951519       3.23923103      12.72546793  F        0
H       15.43757911       5.57209275      10.38640946  F        0
H       17.77043311       3.23924387      10.38640412  F        0
H       17.22544067      10.92750153       8.65411313  F        0
H       19.36965547      14.75328399       4.82834093  F        0
H       17.22544070       8.65411150      10.92750362  F        0
H       21.54216027      12.99764967       6.60187561  F        0
H       15.05290853      12.70105704       6.89848521  F        0
H       21.54216028       6.60187434      12.99765198  F        0
H       13.44269068      10.71000821       3.56560630  F        0
H       19.78591980      14.73191782       1.24430354  F        0
H       15.76397041      10.70999753       1.24433830  F        0
H       26.95194123       7.17131746       4.82834527  F        0
H       26.95194124       4.82834452       7.17131883  F        0
H       25.19630608       9.34383456       6.60185911  F        0
H       25.19630604       6.60185806       9.34383627  F        0
H       26.93058105       7.58756876       1.24433203  F        0
H       26.93058086       1.24433163       7.58757011  F        0
H       26.95192867       1.27083937      -1.07240246  F        0
H       25.19622735      -0.50276655      -3.24494277  F        0
H       26.93057835       4.85486043      -1.48866112  F        0
H       19.36968740       1.27081557      -8.65438303  F        0
H       15.74261410       1.27081536      -5.02730892  F        0
H       17.49833355      -0.50278089      -2.85477948  F        0
H       21.54221652      -0.50278066      -6.89866328  F        0
H       19.78593015       4.85484827      -8.63303166  F        0
H       15.76396555       4.85484859      -4.61106623  F        0
H       17.77043326      -4.28747560       2.85995000  F        0
H       23.12589418      -2.55519498       1.07214050  F        0
H       20.85246702      -4.82860575       1.07212032  F        0
H       24.89950013      -0.79949361       3.24468082  F        0
H       17.49833238      -2.85478383      -0.50277915  F        0
Fe      20.72188404       3.47031282       1.64471006  T        0
Fe      20.37129294       4.30932511       4.64421365  T        0
O       19.65039976       3.71999874       3.08607955  T        0
