141
Lattice="19.123 0.0 0.0 0.0 14.277 0.0 0.0 0.0 7.5465" Properties=species:S:1:pos:R:3:move_mask:L:1:tags:I:1 i=128 E=-2603.9155142701 regions="_JSON [\"Active\"]" n_terminators=34 energy=-944.1742287412615 pbc="F F F"
O       15.61557923       8.49046710       5.58426529  T        0
O       12.77254841       1.15375846       2.13242880  T        0
O       15.71104673       5.84117741       5.67720090  T        0
O       12.92866856      13.17655604       1.54715175  T        0
O       12.68572012      13.23920136       5.52676505  T        0
O       15.73845488       5.92048579       1.97326941  T        0
O       13.10445973       1.13708248       6.07785461  T        0
O       15.47918619       8.50269171       2.00537391  T        0
O       17.14226708      10.55633403       6.21137797  T        0
O       11.61475393       3.48447005       2.41347750  T        0
O       16.96246251       3.50116694       6.30553735  T        0
O       11.93031121      10.80792484       2.50388666  T        0
O       11.61744829      10.79997015       5.15452050  T        0
O       17.09333691       3.34492292       1.24683872  T        0
O       11.82940730       3.40671677       5.09617150  T        0
O       17.00369939      10.31904583       0.99116097  T        0
O       16.14741598      10.47088646       3.59707258  T        0
O       12.50720388       2.79081542      -0.03946462  T        0
O       16.33889290       4.21303820       3.83248017  T        0
O       12.34058085      11.12792554      -0.06916011  T        0
O       14.23513154      11.09349273       5.76446471  T        0
O       14.24655994       3.40498890       1.88938856  T        0
O       14.40038424       3.46849515       5.58524917  T        0
O       14.45855046      10.97382342       1.59289563  T        0
O       11.54509652       8.47965936       3.77552123  T        0
O       17.31267059       1.08211352      -0.27988397  T        0
O       11.46388333       5.76834856       3.81253920  T        0
O        9.51838950      10.28142615       3.47420711  T        0
O        9.48292352       3.91514832       4.07171749  T        0
O       13.42022035       7.07007354       5.04214892  T        0
O       13.30886933       7.02326346       2.34998339  T        0
O       14.46770352       7.15674931      -0.08436451  T        0
Al      15.61219498      10.27144338       5.23859638  T        0
Si      12.81796166       2.72402490       1.57822183  T        0
Si      15.82668860       4.19470609       5.38538533  T        0
Si      12.92565366      11.52931038       1.41996052  T        0
Si      12.74182210      11.65043882       6.01120435  T        0
Al      15.80053195       4.08650269       2.11670118  T        0
Si      12.98680892       2.77967295       6.06413864  T        0
Si      15.76743076      10.11747837       2.06315044  T        0
Si      11.12947150      10.08525143       3.74595499  T        0
Si      17.60503335       2.72352094      -0.16030220  T        0
Si      11.09068802       4.15577822       3.82025228  T        0
Si      14.74229962       7.15975589       5.97973567  T        0
Si      14.71716968       7.14996101       1.52097563  T        0
Si      12.41841252       7.09448187       3.73308047  T        0
O       21.54967856       3.19998114       9.03632711  T        0
O       21.56765089      11.08794112       9.03548656  T        0
O       20.97235816       1.15617626       7.37766602  T        0
O       20.96915510      13.12221013       7.38317141  T        0
O       19.20837175       3.02580081       7.64121658  T        0
O       19.21366975      11.23950317       7.65511480  T        0
O       24.17214353       7.13246889       7.65719330  T        0
Si      20.84804095       2.78364199       7.59172208  T        0
Si      20.85499289      11.49466418       7.59602382  T        0
O       22.91263311       8.49230543       5.67095403  T        0
O       22.91532527       5.78762529       5.65275423  T        0
O       21.52761186      10.65036812       6.34096070  T        0
O       21.55294547       3.61532022       6.34409239  T        0
O       21.96579226      10.17114681       3.75589024  T        0
O       21.97158003       4.09320452       3.74543771  T        0
O       24.02449661      10.97307516       5.21982982  T        0
O       24.04245252       3.32395290       5.19915837  T        0
O       19.21761084       2.95605034      -0.46153567  T        0
O       25.22793701       7.14875232       5.27543997  T        0
Si      22.64011918      10.06671171       5.26045106  T        0
Si      22.64216496       4.20723305       5.25319082  T        0
Si      23.76392979       7.13687946       6.04842138  T        0
O       12.82932814       1.22353651       9.64339441  T        0
O       12.84952547      13.06748507       9.82574210  T        0
O       15.53654497       5.81901306       9.54960378  T        0
O       15.54452930       8.48267674       9.57484903  T        0
O       11.57838578       3.56667169       9.91281472  T        0
O       11.51446592      10.75656177       9.92498376  T        0
O       16.86911568       3.54234865       8.91456178  T        0
O       16.80987117      10.77737884       8.85008372  T        0
O       16.17877684      10.43692995      11.36070182  T        0
O       12.72093485       3.11703549       7.63988392  T        0
O       16.38503017       4.03179305      11.40281540  T        0
O       12.42072316      11.53488227       7.61847577  T        0
O       14.30953769       3.46630852       9.76251732  T        0
O       14.21367547      10.77686367       9.49337643  T        0
O       17.30696222       1.14599866       7.66229864  T        0
O       17.19968806      13.04003696       7.33128363  T        0
O       13.16226842       7.15739644       9.83935771  T        0
O       14.35956856       7.16410724       7.55741443  T        0
Si      12.88847183       2.82819704       9.24958996  T        0
Si      12.77848547      11.52972818       9.21514848  T        0
Si      15.75216547       4.22121970       9.89601339  T        0
Si      15.66330418      10.10790095       9.82823393  T        0
Si      17.58165609       2.77517463       7.64595100  T        0
Si      17.57835136      11.44974497       7.55798157  T        0
Si      14.66503786       7.15376014       9.16623876  T        0
O       15.76560731       8.39847863      -2.16756324  T        0
O       15.50223696       5.80110730      -2.15719947  T        0
O       12.82016281       1.20458811      -2.21808734  T        0
O       16.81178639       3.53880032      -1.36155682  T        0
O       11.52943953       3.54670422      -2.37614065  T        0
O       16.16971529       3.77642843      -3.84931398  T        0
O       14.21686308       3.50189212      -1.98192208  T        0
O       13.22822175       7.33823469      -2.35054860  T        0
Si      15.66957224       4.16762906      -2.33092440  T        0
Si      12.79511021       2.76432091      -1.65782469  T        0
Si      14.74305550       7.18282928      -1.70701314  T        0
H       13.50938118       0.51971906       2.07492992  F        0
H       13.50958039      13.75682243       2.07498241  F        0
H       13.51084140      13.75504172       5.44776650  F        0
H       13.50975252       0.52161770       5.44778410  F        0
H       17.29120144      11.12876736       0.54010345  F        0
H       12.76174962      11.29928001      -0.93393629  F        0
H       16.56036088       0.51548555      -0.00076213  F        0
H        8.59739021      10.07362933       3.76217937  F        0
H        8.59637561       4.20354031       3.76204115  F        0
H       22.00636260       3.98381786       9.40800429  F        0
H       22.00483182      10.29715766       9.41435165  F        0
H       21.68544240       0.51556882       7.54734209  F        0
H       21.68557806      13.76129914       7.54737584  F        0
H       23.63198861       7.14016697       8.47499567  F        0
H       22.32036723      10.11759060       2.83883070  F        0
H       22.32326696       4.16316078       2.82892343  F        0
H       24.76092223      11.11473374       5.84604825  F        0
H       24.75385446       3.15950316       5.84781029  F        0
H       20.08726577       2.93486642      -0.00052988  F        0
H       25.36244212       7.13797332       4.30618001  F        0
H       13.50938118       0.51971906       9.62142992  F        0
H       13.50958039      13.75682243       9.62148241  F        0
H       11.39369377       3.98884644      10.77146895  F        0
H       11.39439525      10.28733182      10.77116771  F        0
H       15.92688062      10.11457984      12.25007275  F        0
H       15.92754156       4.15729643      12.25107281  F        0
H       16.56036088       0.51548555       7.54573787  F        0
H       16.56020813      13.76127004       7.54583021  F        0
H       12.88235039       7.13795337      10.76981689  F        0
H       15.75671561       9.37610020      -2.09181162  F        0
H       13.50975252       0.52161770      -2.09871590  F        0
H       11.39412799       3.98861071      -3.24188863  F        0
H       15.92661844       4.15901570      -4.70770176  F        0
H       12.88191441       7.13773895      -3.23957932  F        0
Fe      16.95688703       6.27695595       3.62280785  T        0
Fe      17.78130032       8.76260349       5.42344196  T        1
O       18.22952056       7.36414089       4.36917388  T        2
