138
Lattice="24.397 0.0 0.0 0.0 24.397 0.0 0.0 0.0 24.397" Properties=species:S:1:pos:R:3:move_mask:L:1:tags:I:1 i=41 E=-6943.8331748197 regions="_JSON [\"Active\"]" n_terminators=30 energy=-941.9115805139902 pbc="F F F"
O       21.66107083       2.58096869       0.04987413  T        0
O       21.85617488       6.19889994       3.42951026  T        0
O       15.54745503       9.70051116       6.26425821  T        0
O       20.99186607      12.51848288       3.60607057  T        0
O       20.98962135       3.62487876      12.54046311  T        0
O       15.51421703       6.33482546       9.77378616  T        0
O       21.85376674      -0.03353934       2.52528364  T        0
O       18.33529003       9.60456269       3.32283305  T        0
O       21.74845858       3.48851519       5.91757244  T        0
O       18.33111093       3.29551489       9.60365860  T        0
O       23.75394344       1.70116433       1.76892292  T        0
O       22.78975943       5.33594855       7.97743096  T        0
O       22.57400286       7.97840670       5.30987571  T        0
O       17.62123496      10.54753718       7.85523515  T        0
O       20.04434851      10.55561599       5.19483902  T        0
O       23.61004710       4.29910515       4.22897411  T        0
O       17.65606825       7.89002804      10.52254001  T        0
O       20.02353110       5.17403146      10.56396238  T        0
O       20.83974367       5.93002775       5.78921311  T        0
O       18.11084551       8.88078896       5.93414688  T        0
O       21.94316730      12.23853905       6.15023256  T        0
O       20.96850832       0.00726665       0.00144360  T        0
O       24.31638363       2.71797504       6.26851073  T        0
O       24.40127884       6.21717213       2.56815877  T        0
O       18.04587838       5.90254218       8.92940672  T        0
O       21.93079732       6.16442494      12.22484801  T        0
O       22.63847251       4.34557185       1.73648074  T        0
O       22.61386127       4.39069772      10.49473197  T        0
O       20.07758947       8.00467021       4.33293885  T        0
O       16.61244082       8.01317708       8.01724615  T        0
O       22.60711875      10.48312306       4.37921020  T        0
O       22.81589002       1.72842032       4.26897196  T        0
O       20.00871737       4.39736449       7.97627460  T        0
Al      23.33175527       3.00905830       0.72690805  T        0
Si      23.62011561       4.83156328       9.27169355  T        0
Si      21.34913091       7.08122172       4.73976353  T        0
Si      16.95691886       9.28097891       7.02857106  T        0
Si      21.36248810      11.46485470       4.82362841  T        0
Si      23.22102775       0.78366962       2.98156895  T        0
Si      19.13172335       9.28004862       4.72734765  T        0
Al      21.41414746       4.83195010       7.10518245  T        0
Si      23.54679863       9.21975709       4.82352994  T        0
Si      23.15844875       3.02889381       5.18261463  T        0
Si      19.11707939       4.70970593       9.26958983  T        0
Si      23.15598273       5.27111176       2.99351099  T        0
Si      21.35471030       4.82673778      11.45928870  T        0
Si      16.94476873       7.03170675       9.30513587  T        0
O       27.01448684       8.65297352       6.13630878  T        0
O       24.52330698       3.51703314       8.82782593  T        0
O       27.06813967       6.14871537       8.66888969  T        0
O       24.42887011       8.71486613       3.53245018  T        0
O       25.25011164       8.02530170       8.07085740  T        0
O       26.38369387       6.96222177       4.14438479  T        0
O       26.41774942       4.12711485       7.00054465  T        0
O       24.51946799       9.60199935       6.06614825  T        0
O       24.62538343       6.03448873       9.75157812  T        0
O       27.91374533       6.12663171       6.12983349  T        0
O       26.30633317      10.52439465       7.86353284  T        0
O       28.88305068       7.95742435       4.39041104  T        0
O       26.39086748       7.92384457      10.51425051  T        0
O       26.16564809       8.02920859       1.65780341  T        0
O       28.92682577       4.41020642       7.94963836  T        0
O       26.09841903       1.60109672       7.94686038  T        0
Si      25.76702400       9.20093108       7.05341918  T        0
Si      25.81615884       7.03381906       9.25628243  T        0
Si      25.36223008       7.48362552       2.98376452  T        0
Si      27.57784071       5.20038436       7.43732705  T        0
Si      27.55563683       7.42123662       5.20143738  T        0
Si      25.34812354       3.00080665       7.51560096  T        0
O       24.70168488       2.41947747      -2.83567631  T        0
O       26.23898037       1.80053625      -0.69545895  T        0
O       24.35198318      -0.15844619      -3.59140591  T        0
O       26.52126307       4.18208457      -2.06680465  T        0
Si      25.47915996       3.02712835      -1.50704997  T        0
O       24.61349222      -2.71126543       2.41841070  T        0
O       26.30604160      -0.64399078       1.84979363  T        0
O       24.45177956      -3.71254054      -0.08321687  T        0
O       26.32509065      -1.98114245       4.26675913  T        0
Si      25.42022809      -1.40803043       3.01341571  T        0
O       17.97221191       2.42375459      -3.43742805  T        0
O       21.00043951       2.53135732      -6.39038222  T        0
O       19.98919884       0.95852214      -4.48422680  T        0
O       22.68143219       0.99693717      -1.80685437  T        0
O       24.42567028       3.61457669      -0.43585478  T        0
O       18.36877872      -0.14591216      -2.62277869  T        0
O       21.90578435      -0.05026121      -6.12338554  T        0
O       20.06490818       1.67282785      -1.90210651  T        0
O       22.59306926       1.69088850      -4.36578040  T        0
Si      19.08247053       1.23242247      -3.14847120  T        0
Si      21.34625049       1.28613857      -5.35420041  T        0
Si      23.60470519       1.24162360      -3.15362868  T        0
Si      21.32905342       1.28164620      -0.94598565  T        0
O       18.01410194      -3.43131566       2.45467912  T        0
O       21.00061263      -6.41298582       2.51853984  T        0
O       22.64870504      -1.89849752       0.78873054  T        0
O       20.00658418      -4.47646206       0.96364097  T        0
O       24.35493221      -0.27175370       3.50557499  T        0
O       18.36575300      -2.62445130      -0.13043087  T        0
O       21.90984275      -6.12365177      -0.05278185  T        0
O       20.10145059      -1.89354494       1.66728700  T        0
O       22.61184820      -4.39023067       1.71245403  T        0
Si      21.38751088      -0.96664821       1.25416496  T        0
Si      21.35336865      -5.36015833       1.28948144  T        0
Si      23.59399793      -3.17374964       1.21399253  T        0
Si      19.10518842      -3.13505647       1.24439761  T        0
H       15.43757914      10.38640764       5.57209357  F        0
H       20.10951523      12.72546585       3.23923157  F        0
H       20.10951519       3.23923103      12.72546793  F        0
H       15.43757911       5.57209275      10.38640946  F        0
H       17.77043279      10.38640226       3.23924444  F        0
H       17.77043311       3.23924387      10.38640412  F        0
H       17.22544067      10.92750153       8.65411313  F        0
H       17.22544070       8.65411150      10.92750362  F        0
H       21.54216027      12.99764967       6.60187561  F        0
H       21.54216028       6.60187434      12.99765198  F        0
H       25.88537327      10.95404844       8.63278900  F        0
H       29.25185888       7.58759487       3.56561113  F        0
H       25.88537328       8.63278754      10.95405052  F        0
H       26.93058105       7.58756876       1.24433203  F        0
H       29.25185918       3.56561063       7.58759619  F        0
H       26.93058086       1.24433163       7.58757011  F        0
H       26.95192867       1.27083937      -1.07240246  F        0
H       25.19622735      -0.50276655      -3.24494277  F        0
H       26.93057835       4.85486043      -1.48866112  F        0
H       26.95192866      -1.07240650       1.27083969  F        0
H       25.19622853      -3.24494603      -0.50276481  F        0
H       26.93057847      -1.48866524       4.85486109  F        0
H       17.77043356       2.85994955      -4.28747201  F        0
H       20.10952426       2.85994950      -6.62656333  F        0
H       17.49833355      -0.50278089      -2.85477948  F        0
H       21.54221652      -0.50278066      -6.89866328  F        0
H       17.77043326      -4.28747560       2.85995000  F        0
H       20.10952426      -6.62656664       2.85995001  F        0
H       17.49833238      -2.85478383      -0.50277915  F        0
H       21.54221602      -6.89866750      -0.50277915  F        0
Fe      20.35018052       4.26872216       4.59010294  T        0
Fe      20.72596804       3.42678019       1.59962903  T        0
O       19.64214255       3.66781456       3.03248569  T        0
