139
Lattice="24.397 0.0 0.0 0.0 24.397 0.0 0.0 0.0 24.397" Properties=species:S:1:pos:R:3:move_mask:L:1:tags:I:1 i=41 E=-6943.8331748197 regions="_JSON [\"Active\"]" n_terminators=32 energy=-936.1816202199325 pbc="F F F"
O       21.66422424       2.60289150       0.05003476  T        0
O       21.86836167       6.15563375       3.52680081  T        0
O       15.54887738       9.69150022       6.25132477  T        0
O       21.00381535      12.46086177       3.53323137  T        0
O       20.82177043       3.63760530      12.34811602  T        0
O       15.69366431       6.22254992       9.80724025  T        0
O       21.84894411      -0.04027243       2.54495429  T        0
O       18.38180225       9.63816121       3.32767952  T        0
O       21.80784362       3.55314939       5.92231464  T        0
O       18.26766248       3.57031564       9.81463492  T        0
O       23.73044131       1.71328599       1.78887456  T        0
O       22.82923580       5.39407146       8.01707002  T        0
O       22.64056647       7.99398297       5.34326687  T        0
O       17.61242395      10.57683951       7.83806138  T        0
O       20.07789302      10.57674265       5.22385471  T        0
O       18.86593819       4.25948803      14.15406812  T        0
O       16.27009015       4.17126862      11.49023129  T        0
O       23.67843054       4.26875502       4.21337290  T        0
O       17.68675628       7.91910878      10.50516876  T        0
O       20.15713218       5.37311117      10.47445506  T        0
O       20.86396233       5.98636999       5.87710873  T        0
O       18.12701311       8.90545948       5.93187938  T        0
O       21.98136428      12.29996355       6.09047042  T        0
O       18.29527764       2.59635361      12.28560042  T        0
O       14.59766029       6.14490604      12.28143648  T        0
O       20.96632404       0.02618638       0.02178404  T        0
O       24.33878884       2.67051052       6.28021940  T        0
O       24.38542729       6.26484254       2.58355830  T        0
O       18.17723280       6.03226445       8.80455952  T        0
O       22.01865510       6.08032673      12.33461956  T        0
O       22.63477797       4.36800060       1.75830052  T        0
O       16.58091041       1.67883686      10.41382099  T        0
O       22.67333756       4.37540884      10.50470669  T        0
O       20.13034153       8.03626682       4.36388084  T        0
O       16.60356104       8.04445734       8.01345566  T        0
O       22.63490732      10.48342206       4.37178718  T        0
O       20.20450657       1.83060947      14.07759023  T        0
O       13.80861796       4.42406045      10.41368691  T        0
O       22.80992082       1.72454814       4.29275987  T        0
O       20.05389622       4.33877458       8.01260882  T        0
Al      23.32952928       3.02619184       0.74851104  T        0
Si      23.67579807       4.87496320       9.30064290  T        0
Si      21.38886890       7.10904540       4.80801872  T        0
Si      16.96267114       9.29921314       7.01759818  T        0
Si      21.38985485      11.47574418       4.80180012  T        0
Si      19.55191684       3.07667204      13.22166688  T        0
Si      15.11806529       5.23801764      11.00291888  T        0
Si      23.21046830       0.78548341       2.99946316  T        0
Si      19.16388936       9.30845561       4.73965684  T        0
Al      21.45268678       4.84922157       7.15521246  T        0
Si      23.59677221       9.26133069       4.87695575  T        0
Si      17.33367337       3.00803739      11.02123247  T        0
Si      23.19445046       3.02602599       5.18913710  T        0
Si      19.17521455       4.81713736       9.27296317  T        0
Si      23.18018281       5.26986359       3.02257503  T        0
Si      21.39924837       4.86526381      11.41883920  T        0
Si      17.01023262       7.05532792       9.27028088  T        0
O       24.62022758       3.61533798       8.79795640  T        0
O       24.56295808       8.72976362       3.65862026  T        0
O       26.31251785       6.72209966       4.25415236  T        0
O       26.33423672       4.22710134       6.72860648  T        0
O       24.47662172       9.81309850       6.14661083  T        0
O       24.63742809       6.06164463       9.92633268  T        0
O       26.28383648       8.04269160       1.81705472  T        0
O       26.23139316       1.76876898       8.01458677  T        0
Si      25.41278008       7.44974637       3.07922185  T        0
Si      25.40140563       3.08028132       7.46828610  T        0
O       24.68875584       2.42554591      -2.81917835  T        0
O       26.24104351       1.79990964      -0.69033940  T        0
O       24.35018657      -0.15460113      -3.58316420  T        0
O       26.51343487       4.18373774      -2.06306686  T        0
Si      25.47605559       3.02845577      -1.49383738  T        0
O       24.60942920      -2.70551223       2.41790064  T        0
O       26.30674894      -0.64277566       1.85027199  T        0
O       24.44544680      -3.70443240      -0.08575847  T        0
O       26.32016741      -1.97860855       4.26926685  T        0
Si      25.41787649      -1.40364474       3.01393265  T        0
O       17.97610891       2.43392437      -3.43313874  T        0
O       20.99762741       2.52228456      -6.39173328  T        0
O       19.98723879       0.96104280      -4.47376334  T        0
O       22.67348034       0.99469613      -1.80060429  T        0
O       24.43492378       3.61859289      -0.41091454  T        0
O       18.36233454      -0.13709266      -2.61138027  T        0
O       21.89530831      -0.05951870      -6.11291987  T        0
O       20.05997898       1.68042562      -1.89008402  T        0
O       22.58985494       1.68869583      -4.36066042  T        0
Si      19.08046238       1.23842562      -3.13893180  T        0
Si      21.34246109       1.28257119      -5.34853871  T        0
Si      23.59923494       1.24292418      -3.14488461  T        0
Si      21.32674215       1.29176074      -0.93629119  T        0
O       18.00467235      -3.43187550       2.44808236  T        0
O       20.99990868      -6.41428109       2.51561847  T        0
O       22.64060525      -1.89412240       0.79308835  T        0
O       20.00501969      -4.47359150       0.96672976  T        0
O       24.35581369      -0.26522488       3.50734513  T        0
O       18.36606344      -2.62243456      -0.13297318  T        0
O       21.90586505      -6.12028985      -0.05493242  T        0
O       20.09449543      -1.88949119       1.66921302  T        0
O       22.61060332      -4.38759769       1.71139491  T        0
Si      21.38225113      -0.96169711       1.26557268  T        0
Si      21.35217673      -5.35785483       1.28921977  T        0
Si      23.58992787      -3.16821481       1.21370922  T        0
Si      19.10179047      -3.13282596       1.24391540  T        0
H       15.43757914      10.38640764       5.57209357  F        0
H       20.10951523      12.72546585       3.23923157  F        0
H       17.77043279      10.38640226       3.23924444  F        0
H       17.22544067      10.92750153       8.65411313  F        0
H       19.36965545       4.82834000      14.75328662  F        0
H       17.22544070       8.65411150      10.92750362  F        0
H       21.54216027      12.99764967       6.60187561  F        0
H       15.05290857       6.89848394      12.70105939  F        0
H       21.54216028       6.60187434      12.99765198  F        0
H       15.76397057       1.24433790      10.70999951  F        0
H       19.78591983       1.24430349      14.73192035  F        0
H       13.44269039       3.56560577      10.71001015  F        0
H       26.95194123       7.17131746       4.82834527  F        0
H       26.95194124       4.82834452       7.17131883  F        0
H       25.19630608       9.34383456       6.60185911  F        0
H       25.19630604       6.60185806       9.34383627  F        0
H       26.93058105       7.58756876       1.24433203  F        0
H       26.93058086       1.24433163       7.58757011  F        0
H       26.95192867       1.27083937      -1.07240246  F        0
H       25.19622735      -0.50276655      -3.24494277  F        0
H       26.93057835       4.85486043      -1.48866112  F        0
H       26.95192866      -1.07240650       1.27083969  F        0
H       25.19622853      -3.24494603      -0.50276481  F        0
H       26.93057847      -1.48866524       4.85486109  F        0
H       17.77043356       2.85994955      -4.28747201  F        0
H       20.10952426       2.85994950      -6.62656333  F        0
H       17.49833355      -0.50278089      -2.85477948  F        0
H       21.54221652      -0.50278066      -6.89866328  F        0
H       17.77043326      -4.28747560       2.85995000  F        0
H       20.10952426      -6.62656664       2.85995001  F        0
H       17.49833238      -2.85478383      -0.50277915  F        0
H       21.54221602      -6.89866750      -0.50277915  F        0
Fe      20.70573571       3.44984867       1.57841568  T        0
Fe      20.39073432       4.34749458       4.60829396  T        1
O       19.38083505       4.34986751       2.85273382  T        2
O       19.75018508       2.94189757       3.28703711  T        3
