145
Lattice="20.102 0.0 0.0 0.0 19.731 0.0 0.0 0.0 13.253" Properties=species:S:1:pos:R:3:move_mask:L:1:tags:I:1 i=77 E=-3472.0240129048 regions="_JSON [\"Active\"]" n_terminators=30 energy=-1003.2170652139743 pbc="F F F"
O       10.04268868       8.70118244       9.44043382  T        0
O       10.27272290      11.08736889       4.33226762  T        0
O        2.44969616      11.47556130       3.81047975  T        0
O        7.63800175       8.74845903      10.56318656  T        0
O       12.50513812      10.85737928       2.74738802  T        0
O        8.12425581       7.13472689       8.50225172  T        0
O       11.85806186      16.86788825       4.80175078  T        0
O       12.31171123      12.52180803       4.83067754  T        0
O        7.93026038       9.77964369       8.16139062  T        0
O       12.48648548       9.86937936       5.20997802  T        0
O        3.79913893      10.92964308       5.96608932  T        0
O        6.40163867       8.48189690      12.82037387  T        0
O       16.79622562       8.56550740       7.22582094  T        0
O       13.70534007      11.10274186       0.49997324  T        0
O        3.20263563       8.92076729       4.28364179  T        0
O        6.02945345      10.75817295      11.42051216  T        0
O       14.07829031       8.82189386       1.97689266  T        0
O        5.06169908      10.69868263       3.67330914  T        0
O        4.96987339       8.50148401      10.55821076  T        0
O       15.18580422      11.09187977       2.75034987  T        0
O        3.71702418      12.35240255       8.19328265  T        0
O        6.10901768       7.30807021       1.35477759  T        0
O       16.31843875       7.31502236       5.00133032  T        0
O        6.05586046      11.51324891       7.28426661  T        0
O        3.80794175       8.27026039       0.72216103  T        0
O       14.25654939       8.31960231       6.42675292  T        0
O        4.39339705       9.74815645       8.26253934  T        0
O        5.83203434      10.03202371       1.20235281  T        0
O       15.82144250       9.94886019       5.09468732  T        0
O        8.59875506      12.37764219       7.70461695  T        0
O        7.88909457      17.18842621       7.64852553  T        0
O       12.03680266       7.22127526       5.44705731  T        0
O        8.20104504      10.87869159       5.77516056  T        0
O       11.87927207       8.78816177       7.53311603  T        0
O        7.59690544      11.00834722       2.96254827  T        0
O        2.43425385       9.19694836       9.86868594  T        0
O       12.57921851       8.31707219      10.11285299  T        0
O       17.76506211      10.70296424       3.51048022  T        0
O        8.79959025       8.59394753       4.03484513  T        0
O       11.74638443      10.73176350       9.29813151  T        0
O       12.04114335      19.02650066       9.38537548  T        0
O        5.66564921      12.61732297       1.99041227  T        0
O        3.78865044       7.18964157       8.61219208  T        0
O       16.23028512      17.08959231       4.57891074  T        0
O       16.17818889      12.54320441       4.73238983  T        0
O        9.96344495      17.28934458       9.38023236  T        0
O       10.41596199      13.03649703       9.64318420  T        0
O       10.02710672       6.22782220       3.98806989  T        0
O        7.56631005      17.29669499      10.36819972  T        0
O        2.26880780       6.44604456       3.83502695  T        0
O        7.54528342      12.61140733      10.24886753  T        0
O       12.32331034       6.97676909       2.84328743  T        0
O        8.47057500      15.06211970       9.02800893  T        0
O       12.22323967       4.77336235       4.37822129  T        0
O        3.60228842       6.92005848       5.99890138  T        0
O        6.52462996      13.09911659      12.62942887  T        0
O       16.80021248      12.67508174       7.32099604  T        0
O       13.52109863       6.61543683       0.56204909  T        0
O       16.61897710      17.20361654       7.21630814  T        0
O        4.93864645       6.97530549       3.70424367  T        0
O        4.87475594      12.94531092      10.52982110  T        0
O       14.92768503       6.46202302       2.86495581  T        0
O        3.91465695       4.78249778       7.64127833  T        0
O       15.99515182      14.88101392       5.97104413  T        0
O        5.94158529       6.51730963       7.12420664  T        0
O       14.26651282      12.94020154       6.59294825  T        0
O       14.14077271      16.79646456       6.28031195  T        0
O        7.86489100       4.68261817       7.55947962  T        0
O       12.35925094      14.80533558       6.22970916  T        0
O        8.27373063       6.76880928       5.89197988  T        0
O       11.65961178      12.49073607       7.30485633  T        0
O       11.83875304      17.10258920       7.51330019  T        0
O        7.49158269       6.31002638       3.40716125  T        0
O        2.24740802      13.41459430      10.18779922  T        0
O       13.14770441      12.98712813       9.38937353  T        0
O       17.50669087       6.76542627       2.63949450  T        0
O       12.37354529      16.45360986      10.09397009  T        0
O        4.01818816      14.87462735       8.82416005  T        0
O        5.64185307       4.80840995       2.23209601  T        0
O       16.52429121       4.79684315       4.25715421  T        0
Si       8.43791785       8.58867797       9.16319660  T        0
Si      11.91110723      11.03321712       4.23487955  T        0
Si       3.62541984      10.49296341       4.40698515  T        0
Si       6.25669184       9.15440823      11.33108851  T        0
Si      13.89777048      10.43819409       1.98106584  T        0
Si       4.46589529      11.13649252       7.42467023  T        0
Si       5.42807698       8.57730402       0.57779423  T        0
Si      15.79933059       8.54426602       5.92326382  T        0
Si       7.60964194      11.10399728       7.28891233  T        0
Si      12.66955371       8.53676080       6.14370599  T        0
Al       8.62741130      10.29443411       4.14272668  T        0
Si      11.57250504       9.12503507       9.09745505  T        0
Si       6.07102144      11.08684458       2.44472206  T        0
Si       3.89381730       8.64379372       9.34295951  T        0
Si      16.24347037      11.07406753       4.00087652  T        0
Si       8.45494476      16.66328298       9.11708059  T        0
Al       8.73281462      13.37319199       9.25144162  T        0
Si      11.63882458       6.29473990       4.16103449  T        0
Si       3.52076831       7.32334809       4.43030680  T        0
Si       6.26776144      12.36369860      11.17356060  T        0
Si      13.72959201       7.22515344       2.06996979  T        0
Si       4.33351814       6.34015367       7.33031526  T        0
Si      15.81976794      13.27424161       6.14669447  T        0
Si      15.72754609      16.49464167       6.02519277  T        0
Si       7.54538224       6.27086320       7.24878392  T        0
Si      12.72437713      13.24049214       6.23623263  T        0
Si      12.55126506      16.43415361       6.22413739  T        0
Si       8.63539585       7.02707253       4.32283478  T        0
Si      11.68702016      12.32616243       9.01355857  T        0
Si      11.54790348      17.47439189       9.09345852  T        0
Si       6.03858722       6.34590020       2.67820479  T        0
Si       3.72832380      13.39003343       9.46146687  T        0
Si      16.32207747       6.32806527       3.69850769  T        0
O        5.87247206       8.58319565      -1.01117489  T        0
H        1.81269882      11.30123319       3.09859993  F        0
H       11.77741499      17.76721957       4.45015374  F        0
H        6.01931354       8.91222751      13.59787507  F        0
H       16.63692148       9.14969546       7.98396390  F        0
H       14.08297195      10.81847671      -0.34490677  F        0
H        3.12887899       8.92429365       0.49683426  F        0
H        7.69777211      18.11826613       7.44841170  F        0
H        1.92726146       8.79770260      10.59110356  F        0
H       13.54926599       8.42132791      10.11787432  F        0
H       18.17502404      10.93300163       2.66186473  F        0
H       11.52310955      19.83515307       9.21116341  F        0
H        5.53537813      12.95496052       1.09262639  F        0
H       15.87290964      17.87210703       4.12309272  F        0
H        6.74596320      16.92620537      10.74076342  F        0
H        2.04924741       6.48050321       2.89306910  F        0
H       11.61525895       4.01919395       4.45233654  F        0
H        5.86807409      12.98161584      13.33116226  F        0
H       16.41758072      12.40218664       8.16986141  F        0
H       14.23421140       6.74908840      -0.07819396  F        0
H       16.41758072      17.19386972       8.16986141  F        0
H        4.37526294       4.01828352       7.26036481  F        0
H        7.92514400       4.01763560       6.85279547  F        0
H        1.73086689      12.60761804      10.35624453  F        0
H       13.32025657      13.20375310      10.31771692  F        0
H       18.37141860       7.12308619       2.89672377  F        0
H       13.32025658      16.39230324      10.31771692  F        0
H        4.05997682      15.72757570       9.28699687  F        0
H        5.99116592       4.00312854       2.66051272  F        0
H       16.04230867       4.00312851       3.96597142  F        0
H        6.58577874       9.14969547      -1.35751146  F        0
Fe       9.91201497      11.98576264       6.19166016  T        1
