136
Lattice="19.123 0.0 0.0 0.0 14.277 0.0 0.0 0.0 7.5465" Properties=species:S:1:pos:R:3:move_mask:L:1:tags:I:1 i=128 E=-2603.9155142701 regions="_JSON [\"Active\"]" n_terminators=32 energy=-912.1959044282156 pbc="F F F"
O        6.12687478       1.15588281       1.54583150  T        0
O       15.72777767       8.45295808       5.86265193  T        0
O       12.88031192       1.13275717       1.64495604  T        0
O        3.36976401       8.40369943       5.33085525  T        0
O       15.73064900       5.75076242       5.82574557  T        0
O       12.91163790      13.00812635       2.25874576  T        0
O        3.51495649       5.79486419       5.88714313  T        0
O       13.05692687      13.13648253       6.05287478  T        0
O        3.45079332       5.83121799       1.66747848  T        0
O       15.44307582       5.76893396       1.95419782  T        0
O       12.93010155       1.14751996       5.92441772  T        0
O        3.25126788       8.50672245       1.65572232  T        0
O        6.21929422       1.17486831       5.87406008  T        0
O       15.58487134       8.43746293       1.80781209  T        0
O        7.20225746       3.50175580       2.45873201  T        0
O       17.16828470      10.73069415       6.12903983  T        0
O       11.91464629       3.55762417       2.45224060  T        0
O        7.49213151      10.89591730       2.39373797  T        0
O       17.14685566       3.45264570       6.10669433  T        0
O       11.75692767      10.65248729       2.34524308  T        0
O        1.96888269       3.57249056       6.11205886  T        0
O       11.97800250      10.81761397       5.02162306  T        0
O        1.96697277       3.57128689       1.41391134  T        0
O        7.01884759      10.38478701       5.08021246  T        0
O       17.11287157       3.72314520       1.31759773  T        0
O       11.89021399       3.52799396       5.09048465  T        0
O        7.20860965       3.59539180       5.09573791  T        0
O       16.96120776      10.73090927       1.34563035  T        0
O        6.67175225       3.23119864      -0.04713645  T        0
O       16.03853664      10.14856012       3.79857152  T        0
O       12.44668280       3.21583539      -0.04196886  T        0
O       16.08596470       4.00752781       3.78468476  T        0
O       12.60943414      11.63479696      -0.06826429  T        0
O        3.05116562       4.20059530       3.76537358  T        0
O        4.62486506       3.39926621       1.76012945  T        0
O       14.49758396      10.85115285       5.85777004  T        0
O       14.49968619       3.26444295       1.75052719  T        0
O       14.46660749       3.37220608       5.80919685  T        0
O       14.35039923      10.78157266       1.79167351  T        0
O        4.61977501       3.34461115       5.75876219  T        0
O       11.20888255       8.47624771       3.80607235  T        0
O        7.95111299       8.43133884       3.66226307  T        0
O       11.18366543       5.81957188       3.78271783  T        0
O       17.30295253      13.11572593       0.05027176  T        0
O        7.91204705       5.83913237       3.68563935  T        0
O        9.54608982      10.52317335       3.92881478  T        0
O        9.54813860       3.76883080       3.75157915  T        0
O       13.57168407       7.10123970       5.04689905  T        0
O        5.76665934       7.12334154       5.34332368  T        0
O        5.56917624       7.28886117       2.46660761  T        0
O       13.17770550       7.25169317       2.13456073  T        0
O       14.44148698       7.00103105      -0.17167314  T        0
O        4.95158226       7.26270222      -0.07047368  T        0
Si       6.11285704       2.80884575       1.44128986  T        0
Si      15.84568620      10.03224319       5.42825158  T        0
Si      12.96388430       2.77482227       1.46033105  T        0
Si      15.84065205       4.16919288       5.40185042  T        0
Si      12.91790882      11.51816593       1.53126786  T        0
Si       3.29493285       4.24922516       5.39012669  T        0
Si      13.01652105      11.48779596       6.11346026  T        0
Si       3.28174982       4.27083089       2.13657583  T        0
Si      15.78813237       4.17954122       2.18497252  T        0
Si      12.96526333       2.79325300       6.09731639  T        0
Si       6.13222549       2.81872998       6.07304650  T        0
Si      15.74559537      10.03132323       2.19074532  T        0
Si      11.13721778      10.15603514       3.79493994  T        0
Si       7.96174794      10.11249345       3.75980013  T        0
Si      11.14470942       4.13787731       3.77536000  T        0
Si      17.54287017      11.47050400      -0.02044742  T        0
Si       7.94873074       4.15060397       3.75108738  T        0
Si      14.81095025       7.09841267       6.08841611  T        0
Si       4.30745425       7.23875528       6.05857574  T        0
Si       4.30760048       7.23676095       1.45894817  T        0
Si      14.70483135       7.11894978       1.42840606  T        0
Al      12.42666393       7.13402570       3.79439456  T        0
Al       6.60894909       7.16552216       3.83186732  T        0
O       19.14416400      11.15616098      -0.21387554  T        0
O        6.65257961       3.23068262       7.58376470  T        0
O       12.41203116       3.18790532       7.59520192  T        0
O       12.42301240      11.06878811       7.59298057  T        0
O       14.17082669       7.07439660       7.61116466  T        0
O        4.40867935       7.66725069       7.65933034  T        0
O       15.63112681       8.45925676      -2.08966474  T        0
O       15.95394857       5.84953840      -2.08828507  T        0
O       12.89903832      13.03597185      -2.33516988  T        0
O       16.78776478      10.78364366      -1.30653099  T        0
O       11.58412911      10.80758110      -5.29012305  T        0
O       11.62829517      10.80871470      -2.56565033  T        0
O       16.21491267      10.45043677      -3.83809290  T        0
O       14.23652972      10.71276801      -1.98829323  T        0
O       11.83047858       8.48768472      -3.93364663  T        0
O       11.33558132       5.87572494      -3.90139790  T        0
O        9.51172182       9.74420416      -3.95365866  T        0
O       13.52271554       6.86204137      -2.65400779  T        0
O       13.39164526       6.76929688      -5.35595865  T        0
Si      15.70238022      10.08622256      -2.31039606  T        0
Si      12.83549867      11.50216309      -1.70514035  T        0
Si      11.13835671       9.98509580      -3.91265733  T        0
Si      14.86699385       7.05330805      -1.75895157  T        0
Si      12.53036988       7.01314324      -3.95427752  T        0
H        5.61083456       0.52083913       2.07985367  F        0
H       13.50938118       0.51971906       2.07492992  F        0
H        3.36611374       9.37433505       5.45534891  F        0
H       13.50958039      13.75682243       2.07498241  F        0
H       13.51084140      13.75504172       5.44776650  F        0
H       13.50975252       0.52161770       5.44778410  F        0
H        3.36626427       9.38386245       2.08012257  F        0
H        5.62509051       0.52255101       5.44942550  F        0
H       17.28974254      11.12548174       7.01862795  F        0
H        6.67686405      11.12256578       1.90156970  F        0
H       17.28979000       3.14560285       7.02339196  F        0
H        1.81954193       3.15353441       6.98813474  F        0
H        1.83183800       3.14857954       0.53722786  F        0
H        6.67998430      11.11604137       5.63469228  F        0
H       17.29134854       3.14797220       0.53999843  F        0
H        6.35952436       2.97904956      -0.93427223  F        0
H       12.76076393       2.97683097      -0.93375646  F        0
H       16.56020813      13.76127004      -0.00066979  F        0
H        4.51175007       7.13509558      -0.92932085  F        0
H       20.08739461      11.34211663       0.00099186  F        0
H        6.35949513       2.97597070       8.47938261  F        0
H       12.76321398       2.97604733       8.47995589  F        0
H       12.76333233      11.30075111       8.47967776  F        0
H       14.61405599       7.13800201       8.47661577  F        0
H        4.50898861       7.14016697       8.47499567  F        0
H       15.75636517       4.89339805      -2.09021006  F        0
H       13.51084140      13.75504172      -2.09873350  F        0
H       12.44599272      11.12072140      -5.64644730  F        0
H       15.92569105      10.11584057      -4.70878458  F        0
H       11.31540413       4.90177526      -3.78397907  F        0
H        8.59739021      10.07362933      -3.78432063  F        0
H       14.25080708       7.13791561      -5.64139813  F        0
Fe       9.51138642       7.12626410       3.20815140  T        0
Fe      11.65826831       7.95074204       0.89464739  T        1
O       12.07350291       8.91022817      -0.44466549  T        2
O        9.98512515       7.27468855       1.49352453  T        3
