150
Lattice="19.123 0.0 0.0 0.0 14.277 0.0 0.0 0.0 7.5465" Properties=species:S:1:pos:R:3:move_mask:L:1:tags:I:1 i=128 E=-2603.9155142701 regions="_JSON [\"Active\"]" n_terminators=30 energy=-1037.2516647935186 pbc="F F F"
O       15.96110146       8.44759778       5.61012578  T        0
O       12.94873331       1.32373943       1.70590339  T        0
O       15.56523227       5.92919802       5.84899681  T        0
O       15.67072031       5.84909350       1.82072120  T        0
O       12.94130516       1.13154317       5.65428637  T        0
O       15.91952388       8.42710355       1.97537736  T        0
O       11.84635143       3.67449719       2.36595681  T        0
O       17.14577968       3.43461355       6.16213712  T        0
O       17.07756177       3.58160310       1.28991892  T        0
O       11.63900140       3.41419462       5.05269258  T        0
O       12.68010635       3.20361461      -0.15891966  T        0
O       16.30216720       4.03097282       3.72203084  T        0
O       14.45322340       3.49330191       1.82258403  T        0
O       14.26623296       3.39072848       5.64934281  T        0
O       11.33747517       8.39872463       3.70464001  T        0
O       17.25365918       1.28667630      -0.08255965  T        0
O       11.73563770       5.82806119       3.90090604  T        0
O        9.54115380       4.27134494       3.48702205  T        0
O       13.45811466       7.48828755       5.14245209  T        0
O       15.48813769      -0.10697814       1.34511306  T        0
O       15.37341541       0.04371615       6.24367050  T        0
O       13.48781409       7.28897621       2.46889279  T        0
O       14.44643186       7.37316376      -0.03094086  T        0
O       14.54308872       0.00255347       3.77840784  T        0
Si      12.95569347       2.90936349       1.44002116  T        0
Al      15.69595061       4.29568864       5.42072039  T        0
Si      15.84433377       4.26024603       2.13642961  T        0
Si      12.83124057       2.75177101       5.98059598  T        0
Si      17.60085398       2.89618485      -0.11897059  T        0
Si      11.16407501       4.29108392       3.73048938  T        0
Si      14.82828349       7.33529297       6.05162425  T        0
Al      13.81621533      -0.09475610       2.10664678  T        0
Si      14.00170279      -0.06088001       5.34972474  T        0
Si      14.84877996       7.24718587       1.55881887  T        0
Si      12.52408320       7.25828916       3.81080560  T        0
Si      16.33446178      -0.06840703      -0.09013652  T        0
O       21.75371294       3.18169367       8.90373459  T        0
O       21.30291293       1.29123195       7.08624722  T        0
O       19.26369722       2.97200436       7.76045845  T        0
Si      20.90163241       2.83418672       7.52653195  T        0
O       21.20338019       3.85396895       6.24975158  T        0
O       19.20164033       3.17392727      -0.35435447  T        0
O       19.20413637      -3.20941070       7.88006572  T        0
O       19.19851552      -3.33575540      -0.13850516  T        0
O       13.00725504       1.21661087       9.56081710  T        0
O       15.48664435       5.88562213       9.54156329  T        0
O       15.62599769       8.45760833       9.91269117  T        0
O       11.54110554       3.43097361       9.98269004  T        0
O       16.83405441       3.68082324       8.81090353  T        0
O       12.48354034       2.92892175       7.58083649  T        0
O       16.24648398       3.97827654      11.34233553  T        0
O       14.24226119       3.55626407       9.54461011  T        0
O       17.22537293       1.25479501       7.70856554  T        0
O       15.25955917      -0.10017446       8.90634108  T        0
O       13.14895372       7.23880962       9.84144344  T        0
O       14.42868133       7.53540595       7.63547074  T        0
O       14.56785108      -0.04416874      11.40146947  T        0
Si      12.83215133       2.80614677       9.17672751  T        0
Si      15.67810082       4.28663335       9.82506861  T        0
Si      17.62597146       2.84162180       7.65182555  T        0
Si      13.94535747      -0.08452792       9.87759082  T        0
Si      14.68333878       7.28555373       9.22594479  T        0
Si      16.25874971      -0.06333302       7.62511162  T        0
O       15.66189820       8.42216862      -2.26905667  T        0
O       15.48901711       5.85755585      -1.98567014  T        0
O       13.05428732       1.20299865      -1.92476411  T        0
O       16.78211169       3.60522589      -1.33830516  T        0
O       11.57219133       3.25739326      -2.62098677  T        0
O       16.38532261       4.10535025      -3.85255254  T        0
O       14.25312793       3.54533041      -2.30039473  T        0
O       13.16458669       7.23984583      -2.30860696  T        0
O       15.31340723      -0.08297528      -1.35148313  T        0
O       14.52724940      -0.06825143      -3.85154471  T        0
Si      15.70885704       4.28375221      -2.36490816  T        0
Si      12.89447606       2.82741761      -1.74021746  T        0
Si      14.68731843       7.24182063      -1.64984814  T        0
Si      13.97031394      -0.09796641      -2.29924131  T        0
O       13.05707724      -1.43587915       9.61731043  T        0
O       15.71360229      -6.05624371       9.82415606  T        0
O       11.54672217      -3.67176327       9.86221646  T        0
O       16.80060314      -3.74582869       8.82998557  T        0
O       16.30073094      -3.95487394      11.37400581  T        0
O       12.64948967      -3.12831214       7.57368504  T        0
O       14.23727069      -3.83325102       9.60641000  T        0
O       17.18983138      -1.40207874       7.57971871  T        0
Si      12.89368647      -3.00979346       9.18646338  T        0
Si      15.74486217      -4.40597988       9.89158928  T        0
Si      17.59428523      -2.99810409       7.61145286  T        0
O       15.95279717      -6.03916663       5.85097521  T        0
O       12.99904349      -1.58270515       1.93052546  T        0
O       13.24138626      -1.47384382       5.58605613  T        0
O       15.93675883      -6.00936329       1.67994173  T        0
O       17.10939186      -3.67429546       6.18627515  T        0
O       11.69798003      -3.88082947       2.39495493  T        0
O       11.90136535      -3.72207997       5.06585798  T        0
O       16.94090277      -3.57124012       1.35139231  T        0
O       16.18074636      -4.28959240       3.77807663  T        0
O       12.64574314      -3.30509687      -0.04963923  T        0
O       14.45815923      -3.82659132       5.76392098  T        0
O       14.30881984      -3.90965790       1.93070549  T        0
O       11.30956838      -6.09685325       3.89693094  T        0
O       17.31737577      -1.37555104      -0.11560219  T        0
O        9.52436055      -4.07905211       4.06420441  T        0
Si      15.91318093      -4.45326493       5.38518181  T        0
Si      12.90389727      -3.13915307       1.55833435  T        0
Si      13.04800095      -3.04120925       5.99437786  T        0
Si      15.82575513      -4.43722093       2.18329813  T        0
Si      11.10597924      -4.44826762       3.82130410  T        0
Si      17.58968730      -3.00208638      -0.05605559  T        0
O       15.74753443      -6.06755498      -2.26178568  T        0
O       13.11216110      -1.45212615      -1.96923761  T        0
O       16.81995491      -3.74291393      -1.29687607  T        0
O       11.54567417      -3.62117298      -2.35585227  T        0
O       16.33342876      -3.98370682      -3.84084454  T        0
O       14.24865142      -3.85565982      -2.10793736  T        0
Si      15.76638534      -4.41844505      -2.35643964  T        0
Si      12.90808523      -3.04905691      -1.63691305  T        0
H       15.75671561       9.37610020       5.45468838  F        0
H       15.75699573       9.38061947       2.07980242  F        0
H       11.31595404       9.37380971       3.76235534  F        0
H        8.59637561       4.20354031       3.76204115  F        0
H       22.00636260       3.98381786       9.40800429  F        0
H       21.68544240       0.51556882       7.54734209  F        0
H       21.98145514       3.97853683       5.66306621  F        0
H       20.08726577       2.93486642      -0.00052988  F        0
H       20.08739461      -2.93488337       7.54749186  F        0
H       20.08739461      -2.93488337       0.00099186  F        0
H       15.75699573       9.38061947       9.62630242  F        0
H       11.39369377       3.98884644      10.77146895  F        0
H       15.92754156       4.15729643      12.25107281  F        0
H       12.88235039       7.13795337      10.76981689  F        0
H       14.07270598       0.00010018      12.23669175  F        0
H       15.75671561       9.37610020      -2.09181162  F        0
H       11.39412799       3.98861071      -3.24188863  F        0
H       15.92661844       4.15901570      -4.70770176  F        0
H       12.88191441       7.13773895      -3.23957932  F        0
H       14.07160463      -0.00015943      -4.71417255  F        0
H       15.17712900      -6.61799919       9.23343573  F        0
H       11.39439525      -3.98966818      10.77116771  F        0
H       15.92688062      -4.16242016      12.25007275  F        0
H       15.17320598      -6.62175386       5.84596239  F        0
H       15.17712900      -6.61799919       1.68693573  F        0
H       12.12595522      -6.62290057       3.76264176  F        0
H        8.59739021      -4.20337067       3.76217937  F        0
H       15.17320598      -6.62175386      -1.70053761  F        0
H       11.39521725      -3.98937216      -3.24237523  F        0
H       15.92569105      -4.16115943      -4.70878458  F        0
Fe      16.46087678       0.16543057       3.12093798  T        0
Fe      17.65661919       2.61738541       4.37493160  T        1
O       17.99432124       0.97006391       3.67904795  T        2
