139
Lattice="19.123 0.0 0.0 0.0 14.277 0.0 0.0 0.0 7.5465" Properties=species:S:1:pos:R:3:move_mask:L:1:tags:I:1 i=128 E=-2603.9155142701 regions="_JSON [\"Active\"]" n_terminators=32 energy=-934.5601676323433 pbc="F F F"
O       15.68779309       8.40744999       5.56499507  T        0
O       12.92770377       1.10022589       1.56047589  T        0
O       15.50296691       5.79442505       5.62753508  T        0
O       12.93902454      12.97357817       2.13766007  T        0
O       12.73935956      13.19348149       5.64469891  T        0
O       15.59692910       5.71170453       1.79132407  T        0
O       12.66086435       0.97586940       5.60278329  T        0
O       15.76821492       8.34530881       1.94081158  T        0
O       17.10610626      10.93703644       6.28697740  T        0
O       11.87463444       3.46735509       2.43166364  T        0
O       17.12328101       3.60548689       6.16970405  T        0
O       11.85958608      10.63440457       2.38247759  T        0
O       11.65864812      10.79738075       5.07982577  T        0
O       17.06433904       3.49618154       1.26944561  T        0
O       11.58163389       3.39401868       5.11174737  T        0
O       17.06048525      10.66156334       1.21683818  T        0
O       16.35152051      10.05770455       3.68690432  T        0
O       12.71622735       3.08381717      -0.10750731  T        0
O       16.28647966       4.00470426       3.72494953  T        0
O       12.71100619      11.37786181      -0.07298445  T        0
O       14.27736908      10.97775359       5.57082994  T        0
O       14.47155991       3.28366965       1.90518874  T        0
O       14.20462628       3.11014075       5.65729835  T        0
O       14.45996223      10.73594822       1.80208050  T        0
O       11.43016081       8.42986778       3.78242906  T        0
O       17.32459883       1.13063426      -0.08525371  T        0
O       11.55692380       5.74201923       3.80641596  T        0
O       17.30945097      13.12522383       0.04895425  T        0
O        9.50008569      10.33226464       3.47512990  T        0
O        9.49944586       3.98166436       3.43693557  T        0
O       13.29781797       7.22251299       5.20957088  T        0
O       13.44762126       7.14887862       2.53527120  T        0
O       14.31383479       7.21782252      -0.00657479  T        0
Al      15.80596825      10.22840776       5.39885538  T        0
Si      12.98258246       2.74288916       1.46958424  T        0
Al      15.55774137       4.06727255       5.36541563  T        0
Si      12.98998312      11.44426170       1.54200151  T        0
Si      12.82785345      11.56870335       5.96509505  T        0
Si      15.84206376       4.12351900       2.14818681  T        0
Si      12.71496771       2.58813433       5.99689775  T        0
Si      15.87449634      10.02493458       2.12661785  T        0
Si      11.10037491      10.05014810       3.72479687  T        0
Si      17.57974914       2.76998917      -0.12225031  T        0
Si      11.11015868       4.15336728       3.72296816  T        0
Si      17.57962564      11.49595145      -0.11369477  T        0
Si      14.71031509       7.15202745       6.02986521  T        0
Si      14.74047815       7.08069314       1.55063071  T        0
Si      12.41881570       7.13200324       3.83163233  T        0
O       21.58548153       3.19177857       9.01041322  T        0
O       21.01163521       1.17654090       7.30974419  T        0
O       19.23666612       3.04167416       7.61329608  T        0
O       19.21753959      11.32777334       8.00801315  T        0
Si      20.88033443       2.79721087       7.56614134  T        0
O       22.55319813       5.97158576       5.32112069  T        0
O       21.56426636       3.63945915       6.31183475  T        0
O       22.19060350       3.82767136       3.74817903  T        0
O       24.22472232       3.96287600       5.66916542  T        0
O       19.18176778       3.05369254      -0.37180443  T        0
O       19.18157971      11.24322023      -0.37303542  T        0
Si      22.65513345       4.32372271       5.26593466  T        0
O       12.85159591       1.22041959       9.79491284  T        0
O       12.81483648      13.07042506       9.68282447  T        0
O       15.56804206       5.80734715       9.59453207  T        0
O       15.53674650       8.47382563       9.72382708  T        0
O       11.53711388       3.53938798       9.91735021  T        0
O       11.51979260      10.74417560       9.91433182  T        0
O       16.83270086       3.52629008       8.83244656  T        0
O       16.80461407      10.74916584       8.89721943  T        0
O       16.20795535      10.49306830      11.40161834  T        0
O       12.43113314       2.78504947       7.60137137  T        0
O       16.17554786       3.82866365      11.36103965  T        0
O       12.53263037      11.35440570       7.57335341  T        0
O       14.24135175       3.50351193       9.46295316  T        0
O       14.21877402      10.76558465       9.57410464  T        0
O       17.27955105       1.18881706       7.47005718  T        0
O       17.32053982      13.20089207       7.81330819  T        0
O       13.17327096       7.07378012       9.84791214  T        0
O       14.42837260       7.24042723       7.62267337  T        0
Si      12.79629879       2.76513698       9.20038279  T        0
Si      12.80172653      11.48834249       9.18672226  T        0
Si      15.68547608       4.18194115       9.82342776  T        0
Si      15.68480904      10.11457179       9.88710021  T        0
Si      17.60059877       2.81017212       7.56155910  T        0
Si      17.60822129      11.56001313       7.69791454  T        0
Si      14.69683718       7.15731262       9.22757869  T        0
O       15.53837520       8.48923406      -2.00842089  T        0
O       15.48600016       5.81735759      -1.97424900  T        0
O       12.80765558      13.08104058      -2.17396606  T        0
O       12.81215442       1.20706636      -2.10893139  T        0
O       16.77036970      10.83573617      -1.37265565  T        0
O       16.75996795       3.50864326      -1.33718360  T        0
O       11.53888807      10.74029087      -2.38243706  T        0
O       11.53518330       3.53471011      -2.38948509  T        0
O       16.33403062      10.32057464      -3.85203547  T        0
O       16.36548151       4.06551460      -3.84437085  T        0
O       14.23616843      10.79410926      -2.20395083  T        0
O       14.24886960       3.47959324      -2.27314066  T        0
O       13.14420772       7.20555330      -2.30587090  T        0
Si      15.70072652      10.09063606      -2.35372274  T        0
Si      15.69887112       4.22658994      -2.34929666  T        0
Si      12.84247750      11.49094516      -1.71048562  T        0
Si      12.85596490       2.81419199      -1.72427559  T        0
Si      14.63921124       7.17245434      -1.61518513  T        0
H       13.50938118       0.51971906       2.07492992  F        0
H       13.50958039      13.75682243       2.07498241  F        0
H       13.51084140      13.75504172       5.44776650  F        0
H       13.50975252       0.52161770       5.44778410  F        0
H       16.56036088       0.51548555      -0.00076213  F        0
H       16.56020813      13.76127004      -0.00066979  F        0
H        8.59739021      10.07362933       3.76217937  F        0
H        8.59637561       4.20354031       3.76204115  F        0
H       22.00636260       3.98381786       9.40800429  F        0
H       21.68544240       0.51556882       7.54734209  F        0
H       20.08739461      11.34211663       7.54749186  F        0
H       23.07136830       6.61169953       5.84807952  F        0
H       22.32326696       4.16316078       2.82892343  F        0
H       24.75385446       3.15950316       5.84781029  F        0
H       20.08726577       2.93486642      -0.00052988  F        0
H       20.08739461      11.34211663       0.00099186  F        0
H       13.50938118       0.51971906       9.62142992  F        0
H       13.50958039      13.75682243       9.62148241  F        0
H       11.39369377       3.98884644      10.77146895  F        0
H       11.39439525      10.28733182      10.77116771  F        0
H       15.92688062      10.11457984      12.25007275  F        0
H       15.92754156       4.15729643      12.25107281  F        0
H       16.56036088       0.51548555       7.54573787  F        0
H       16.56020813      13.76127004       7.54583021  F        0
H       12.88235039       7.13795337      10.76981689  F        0
H       13.51084140      13.75504172      -2.09873350  F        0
H       13.50975252       0.52161770      -2.09871590  F        0
H       11.39521725      10.28762784      -3.24237523  F        0
H       11.39412799       3.98861071      -3.24188863  F        0
H       15.92569105      10.11584057      -4.70878458  F        0
H       15.92661844       4.15901570      -4.70770176  F        0
H       12.88191441       7.13773895      -3.23957932  F        0
Fe      17.94397968       4.94903793       4.75581970  T        0
Fe      16.91442897       7.94822258       3.95854893  T        1
O       18.57661583       6.83135926       4.79821600  T        2
O       18.16460114       6.48920456       3.38830954  T        3
