133
Lattice="20.102 0.0 0.0 0.0 19.731 0.0 0.0 0.0 13.253" Properties=species:S:1:pos:R:3:move_mask:L:1:tags:I:1 i=77 E=-3472.0240129048 regions="_JSON [\"Active\"]" n_terminators=28 energy=-916.7532185584878 pbc="F F F"
O       10.09340573       8.66447481       9.41722214  T        0
O       10.07433501      10.79962237       4.12410872  T        0
O        2.29154895      10.80856530       3.45307229  T        0
O        7.63976652       8.76804073      10.41667574  T        0
O       12.16548093      11.11807106       2.61958059  T        0
O        8.53316975       2.78412664       8.34079730  T        0
O        1.98646812      12.64076622       1.56441873  T        0
O        8.16322814       7.09560176       8.41407443  T        0
O       11.95769418      12.51909746       4.92628795  T        0
O        1.46508912      10.02802342       1.04884130  T        0
O        8.16754574       9.74126924       7.97305230  T        0
O       12.42972713       9.90383454       5.01704543  T        0
O        3.49225357      11.14078660       6.09096824  T        0
O        6.50264942       8.78479072      12.75880289  T        0
O        3.96009663       8.71509777       4.73654844  T        0
O        6.22782947      10.92937539      11.07183726  T        0
O        5.25471097      10.69933379       3.77107487  T        0
O        4.97710195       8.69209086      10.50369073  T        0
O        4.06021440      12.47522369       8.30925628  T        0
O        5.95828542       7.26971445       1.26048545  T        0
O        5.82394804      10.70933436       7.24489666  T        0
O        3.86947841       8.84938910       0.86351571  T        0
O       14.31553896       8.91194969       6.63550196  T        0
O        3.66972133       9.84229172       8.45301577  T        0
O        6.21581267       9.93151057       1.43113549  T        0
O        7.76988725      12.39993496       7.88460865  T        0
O        1.67658088       7.39162141       1.10191410  T        0
O       12.49600874       7.29400547       5.43256853  T        0
O        7.90953309      11.01353445       5.66749163  T        0
O       11.86513000       8.93081813       7.46236762  T        0
O        7.69039017      11.42642371       3.05245943  T        0
O        2.38687026       8.12807469      10.06363295  T        0
O       12.57790644       8.43104448      10.06942851  T        0
O        8.01632973       8.99221741       4.00940040  T        0
O       11.62547105      10.84714906       9.28883118  T        0
O        4.00848266       2.10800137       8.21116285  T        0
O        5.57766481      12.55392003       1.83475596  T        0
O        4.16077731       7.19201285       8.44194720  T        0
O       -0.07204098       6.64541772       3.01610010  T        0
O       10.08689102      13.04877426       9.02064100  T        0
O       10.49841580       7.14185309       3.66797644  T        0
O        2.52821068       6.67302126       3.54374654  T        0
O        7.86084888      12.98400919      10.46514362  T        0
O       12.98805768       6.28901334       2.97797738  T        0
O        8.11827564      14.86402491       8.50694383  T        0
O        1.59387885       4.88748399       1.74054880  T        0
O       11.61274291       4.91940253       4.82327015  T        0
O        3.67073077       6.36261950       5.91696553  T        0
O        6.66534605      12.97137567      12.78002013  T        0
O        3.81953584       3.20358658       5.77513664  T        0
O        5.25218525       6.84057935       3.77508460  T        0
O        5.20540047      13.33150667      10.56160655  T        0
O        6.12705685      14.85771973       0.51324638  T        0
O        4.70928151       4.69691235       7.71070075  T        0
O        6.13245015       6.79631206       6.71311451  T        0
O        3.91897841      13.43848794      -0.10385657  T        0
O        6.26712474       2.70127664       6.82545135  T        0
O       14.18636088      13.74912415       5.90750814  T        0
O        1.67449845      14.87580988       0.00214335  T        0
O        7.88824416       4.82424629       6.94227161  T        0
O       11.80476155      14.90007348       6.01460082  T        0
O        8.58833165       7.08854767       5.78910561  T        0
O        8.72348813       2.51322009       5.71428512  T        0
O       12.31744863      12.69969408       7.54898288  T        0
O        7.73447471       6.38268583       3.09531671  T        0
O        2.65608973      12.76431291      10.60972812  T        0
O       12.36629806      13.29219949      10.17881529  T        0
O        3.49314234      14.93492651       9.23551198  T        0
O        5.76930571       4.76846873       2.10153947  T        0
Si       1.40048987      11.22712072       2.17814294  T        0
Si       8.51207524       8.56196471       9.05524591  T        0
Si      11.68353372      11.08567016       4.18920854  T        0
Al       3.60214933      10.47859106       4.50150618  T        0
Si       6.31871274       9.30255840      11.21020703  T        0
Si       4.23641077      11.05999979       7.51190400  T        0
Si       5.47477031       8.70662304       0.63576337  T        0
Si       7.42383336      10.96934499       7.22037279  T        0
Si       2.29100328       8.76022160       0.45300374  T        0
Si      12.75584584       8.73752394       6.11943802  T        0
Si       8.48332042      10.58037798       4.21072861  T        0
Si      11.57560888       9.22799114       9.04339663  T        0
Si       6.16547922      11.18446910       2.48673159  T        0
Si       3.82454463       8.49746873       9.36143179  T        0
Si       1.41887060       6.39727816       2.35535505  T        0
Si       8.48826401      13.34327827       8.99600115  T        0
Si      11.85681130       6.41718390       4.18720094  T        0
Si       3.75863434       7.10662442       4.47872634  T        0
Si       6.47829425      12.53555605      11.20674674  T        0
Si       4.66451544       6.25667203       7.22351409  T        0
Si       5.46866549      13.35151252       0.40116664  T        0
Si       4.72027954       3.15094122       7.15237308  T        0
Si       7.74136886       6.44275300       6.96989505  T        0
Si       2.29167032      13.34821314       0.12791537  T        0
Si       7.83586002       3.20685915       6.91693528  T        0
Si      12.57557107      13.45047499       6.11967833  T        0
Al       8.83116592       7.32105271       4.09198005  T        0
Si      11.59511171      12.44808386       8.99475404  T        0
Si       6.24222482       6.28317529       2.52873732  T        0
Si       3.85221414      13.38240728       9.65094869  T        0
O        5.79166936       8.75048519      -0.96873756  T        0
O        2.19620323       8.66435940      -1.17855229  T        0
O        6.40622938      12.42221044      -0.57853026  T        0
O        1.55040456      12.32580447      -0.92104322  T        0
O       -0.17850491      11.52527639       2.54915524  T        0
H       13.03074804      10.85204106       2.26762503  F        0
H        8.32487049       1.96348467       8.80281458  F        0
H        6.01931354       8.91222751      13.59787507  F        0
H       15.03932990       8.88569483       5.99268334  F        0
H        1.92726146       8.79770260      10.59110356  F        0
H       13.54926599       8.42132791      10.11787432  F        0
H        4.22937586       1.85859719       9.12987557  F        0
H       -0.70903753       7.30425969       2.68512250  F        0
H       13.35632228       7.06085325       2.51220488  F        0
H        8.48702655      15.71151028       8.80063176  F        0
H        1.56411620       4.01919395       2.17414761  F        0
H       11.61525895       4.01919395       4.45233654  F        0
H        5.86807409      12.98161584      13.33116226  F        0
H        3.68470477       2.53683452       5.08310689  F        0
H        5.67587981      15.71242072       0.63388066  F        0
H       14.91456245      13.24933472       6.30897701  F        0
H        2.12599875      15.71306863       0.22631132  F        0
H       12.17714149      15.71306863       6.40017283  F        0
H        8.61892989       2.44869843       4.74740482  F        0
H        1.73086689      12.60761804      10.35624453  F        0
H       13.32025657      13.20375310      10.31771692  F        0
H        4.05997682      15.72757570       9.28699687  F        0
H        5.99116592       4.00312854       2.66051272  F        0
H        6.58577874       9.14969547      -1.35751146  F        0
H        1.54448592       9.14594745      -1.70877228  F        0
H        6.36643797      12.40218664      -1.54340896  F        0
H        1.43221285      12.31405055      -1.87911103  F        0
H       -0.90389482      10.88061926       2.50078840  F        0
Fe       6.03346567       8.81234078       4.47309279  T        1
