142
Lattice="20.102 0.0 0.0 0.0 19.731 0.0 0.0 0.0 13.253" Properties=species:S:1:pos:R:3:move_mask:L:1:tags:I:1 i=77 E=-3472.0240129048 regions="_JSON [\"Active\"]" n_terminators=30 energy=-979.4740811951842 pbc="F F F"
O       10.11484207       8.93236569       9.46625843  T        0
O       10.40443256      10.63013536       3.88787814  T        0
O        2.49955267      10.93193300       3.36487426  T        0
O        7.63699958       8.76474676      10.48470087  T        0
O       12.88003304      11.42680836       3.04163863  T        0
O        8.19952174       2.91744275       8.78567449  T        0
O        1.65702089      12.35351512       1.25577845  T        0
O        8.24238624       7.50401081       8.22676674  T        0
O       11.69740692      12.52592064       5.16410189  T        0
O        1.62802795       9.71629231       1.13110638  T        0
O        8.09402042      10.17983631       8.30805626  T        0
O       12.59342713       9.93438474       5.23385409  T        0
O        3.55183870      11.17476164       5.80995796  T        0
O        6.30551049       8.58704423      12.72599209  T        0
O        4.17429835       9.03910250       4.33013727  T        0
O        6.58487132      11.00847206      11.63118272  T        0
O        3.39419016       0.68740792       5.04318779  T        0
O        5.12732492      11.32719309       3.62052350  T        0
O        4.99474874       9.23485033      10.42545500  T        0
O        6.43029604       1.95791353       1.62507801  T        0
O        3.99403198      12.70591541       7.87860848  T        0
O        6.13063885       6.95535072       1.21422184  T        0
O        5.84980914      10.85538861       7.04525710  T        0
O        3.93816961       8.41312035       0.72502645  T        0
O       14.37640174       8.46196587       6.55897081  T        0
O        3.64112674      10.07242013       8.29070610  T        0
O        5.99820390       9.53383728       1.91373309  T        0
O        2.62370923       2.39620105       1.32142521  T        0
O        7.54471116      12.71121201       7.82633873  T        0
O        1.64214898       7.07218374       0.81174175  T        0
O       12.34915680       7.25103897       5.29189880  T        0
O       12.48125304       2.54017070       5.51426074  T        0
O        8.15413238      10.98026474       5.76851088  T        0
O       11.93434953       8.62582553       7.51620257  T        0
O        7.69504540      11.25536539       2.95582451  T        0
O        2.48286373       8.30280378       9.97110521  T        0
O       12.59929001       8.63521979      10.16379640  T        0
O        8.15393345       8.74362548       4.04266388  T        0
O        8.51227537       0.55014976       4.75903830  T        0
O       11.85950620      10.90778948       8.78960906  T        0
O        4.06324192       2.75717014       8.80057599  T        0
O        5.85307603      12.16581115       1.18233701  T        0
O        4.43516769       7.51507891       8.47599345  T        0
O       -0.27497639       6.44058332       2.61298599  T        0
O        0.15557598       2.34261424       2.29090946  T        0
O       10.19550183       2.54701792       4.03555962  T        0
O       10.30079484       7.00998974       3.65115108  T        0
O        2.30582690       6.93801938       3.36781094  T        0
O        2.28472853       2.90417497       3.89640091  T        0
O       12.41779485       2.75463926       2.76539233  T        0
O       12.74884415       6.34608104       2.74688860  T        0
O        1.55010154       4.69848251       2.07412705  T        0
O       11.61455360       4.77970200       4.45775669  T        0
O        3.59049527       6.83150148       6.00125013  T        0
O        3.67971997       3.03581061       6.12426413  T        0
O        5.26553488       6.81170107       3.67670981  T        0
O        4.92634349       2.53706059       3.79543809  T        0
O        5.77437645      14.79712892       0.95662999  T        0
O        4.61778130       5.02326428       7.66426569  T        0
O        6.17813290       6.96401386       6.58319549  T        0
O        3.80030768      13.24516546      -0.10101657  T        0
O        6.14229155       2.94292853       7.03008814  T        0
O        1.77582174      14.88942822       0.60883915  T        0
O        7.80172045       5.02445685       7.42226876  T        0
O        8.67987379       6.78152617       5.70892972  T        0
O        8.61723731       2.76596053       6.15188390  T        0
O        7.79592915       6.28046909       3.20093957  T        0
O        7.58878605       2.91005130       3.72395827  T        0
O        5.96882287       4.52532913       2.37658559  T        0
Si       1.43570025      10.99445955       2.13171258  T        0
Si       8.52423766       8.83933213       9.11612762  T        0
Si      11.87826189      11.11671395       4.33017981  T        0
Si       3.79135369      10.64609983       4.29355434  T        0
Si       6.36780221       9.40137795      11.30281450  T        0
Si       4.27371173      11.19925740       7.29005001  T        0
Si       5.55726934       8.41536564       0.75307946  T        0
Si       7.45301202      11.18567776       7.19149042  T        0
Si       2.35152794       8.46883830       0.36306373  T        0
Si      12.78804194       8.59136016       6.12775617  T        0
Al       8.71348702      10.52274758       4.18946094  T        0
Si      11.64190171       9.27921247       8.98819671  T        0
Si       6.21144984      11.15374559       2.38664128  T        0
Si       3.89296461       8.79876092       9.29899091  T        0
Si       1.32844366       6.30613180       2.25058010  T        0
Si       1.60912844       3.10968923       2.41732276  T        0
Si      11.70290903       3.15991798       4.19424927  T        0
Si      11.76279937       6.35657068       4.06253388  T        0
Al       3.66093936       7.29145771       4.34705153  T        0
Si       3.57869065       2.28522878       4.68521740  T        0
Si       4.66071054       6.57425335       7.16983637  T        0
Si       5.39802002      13.38851508       0.20042696  T        0
Si       4.61855993       3.41881686       7.40617900  T        0
Si       7.71777304       6.57902071       7.00786928  T        0
Si       2.18207967      13.38062556       0.09720281  T        0
Si       7.68102306       3.41771436       7.31590081  T        0
Si       8.77048144       7.19653396       4.14365056  T        0
Si       8.72772987       2.17992140       4.63487669  T        0
Si       6.28074946       6.09472436       2.60778909  T        0
Si       6.19961792       2.97643699       2.89018612  T        0
O        7.99534321       8.49830250      -2.58925149  T        0
O        6.17819957       8.78452793      -0.68381362  T        0
O        6.70961373      10.80124027      -2.25380919  T        0
O        5.48468799       8.59571170      -3.33180669  T        0
O        2.29107608       8.70435795      -1.27120510  T        0
O        7.05539011      13.04806560      -3.75643992  T        0
O        6.21093942      13.23074703      -1.21109329  T        0
O        4.66284026      12.14522762      -3.14569434  T        0
O        1.41351998      13.12440396      -1.34049540  T        0
Si       6.54471447       9.17536603      -2.22534157  T        0
Si       6.19564882      12.30364022      -2.57184174  T        0
O       -0.01653135      10.93193859       2.88960369  T        0
H       13.03074804      10.85204106       2.26762503  F        0
H        8.32487049       1.96348467       8.80281458  F        0
H       12.25872463      13.00694285       5.79628406  F        0
H        6.01931354       8.91222751      13.59787507  F        0
H        6.45001595      11.67065412      10.93294989  F        0
H        3.45924363      -0.04624542       4.41174334  F        0
H        5.69664664       1.68513527       1.05659762  F        0
H        4.03182275      12.92715973       8.82439874  F        0
H       15.03932990       8.88569483       5.99268334  F        0
H        2.35337064       1.61243811       0.82192755  F        0
H        8.21123678      12.90527891       8.50458507  F        0
H       12.40451338       1.61243810       5.80455660  F        0
H        1.92726146       8.79770260      10.59110356  F        0
H       13.54926599       8.42132791      10.11787432  F        0
H        8.57917594      -0.10444883       4.04180490  F        0
H       11.43576677      11.60834527       9.31342917  F        0
H        4.22937586       1.85859719       9.12987557  F        0
H       -0.70903753       7.30425969       2.68512250  F        0
H       -0.70903753       2.56109242       2.68512249  F        0
H       13.35632229       2.80449888       2.51220488  F        0
H       13.35632228       7.06085325       2.51220488  F        0
H        5.67587981      15.71242072       0.63388066  F        0
H        2.12599875      15.71306863       0.22631132  F        0
H        8.23844393       8.42947104      -3.52791591  F        0
H        4.52133035       8.52501985      -3.25073397  F        0
H        1.54448592       9.14594745      -1.70877228  F        0
H        8.00189534      13.25020102      -3.73344676  F        0
H        4.26454119      12.99430937      -3.37720033  F        0
H        1.43221285      12.31405055      -1.87911103  F        0
H       -0.90389482      10.88061926       2.50078840  F        0
Fe       6.14836475       8.72679366       4.02247043  T        1
