141
Lattice="19.123 0.0 0.0 0.0 14.277 0.0 0.0 0.0 7.5465" Properties=species:S:1:pos:R:3:move_mask:L:1:tags:I:1 i=128 E=-2603.9155142701 regions="_JSON [\"Active\"]" n_terminators=32 energy=-955.2021260582248 pbc="F F F"
O        6.17093124       1.12271055       1.55184511  T        0
O       15.53799192       8.42569952       5.78640684  T        0
O       13.02661866       1.11757048       1.47414044  T        0
O        3.38860509       8.39963289       5.83665498  T        0
O        6.27048369      13.03791698       2.06318539  T        0
O       15.57470522       5.75112906       5.78338596  T        0
O       13.14226290      13.14457532       1.41196508  T        0
O        3.30195789       5.69854371       5.86553707  T        0
O       13.12421027      13.14433071       6.10533056  T        0
O        3.64302991       5.82145723       1.98944316  T        0
O        5.92745391      13.14199311       6.14565554  T        0
O       15.69043225       5.77631631       1.76182114  T        0
O       12.90686684       1.12599445       5.92147872  T        0
O        3.46074207       8.49892912       1.76332466  T        0
O        6.20961233       1.15537999       5.91131567  T        0
O       15.61689443       8.46899511       1.77521777  T        0
O        7.24745285       3.46726333       2.46063285  T        0
O       17.22910087      10.44810256       6.31246573  T        0
O       11.92399278       3.41297047       2.46189823  T        0
O        1.92652974      10.65382186       6.16779972  T        0
O        7.20372560      10.53436697       2.29026514  T        0
O       17.15926621       3.58240917       6.15556745  T        0
O       11.95888554      10.79329958       2.18258382  T        0
O        1.99938874       3.32985268       6.04598017  T        0
O       12.11279823      10.80602385       5.02284447  T        0
O        2.05176144       3.82187449       1.21838750  T        0
O        7.10731780      10.97947357       4.96833862  T        0
O       17.16606200       3.52380243       1.43595744  T        0
O       11.93088509       3.53010079       5.09940462  T        0
O        2.03539941      10.75539609       1.36306515  T        0
O        7.27773639       3.52124082       5.09447638  T        0
O       17.22410589      10.59589731       1.36487274  T        0
O        6.68734980       3.22404184      -0.04943203  T        0
O       16.30111485      10.04087924       3.82971419  T        0
O       12.44529116       3.23277332      -0.05035863  T        0
O        2.97545918      10.12618753       3.81619584  T        0
O        6.40261285      11.33349635      -0.08348452  T        0
O       16.07795022       4.06277443       3.78348249  T        0
O       13.30795249      11.01582156      -0.18462735  T        0
O        3.01796751       3.99615994       3.75527611  T        0
O        4.65245998       3.33152558       1.74952277  T        0
O       14.65807710      10.97511155       5.78409111  T        0
O       14.49652315       3.36500403       1.74701594  T        0
O        4.60174717      10.80292367       5.82076265  T        0
O        4.60905601      10.91769710       1.85204540  T        0
O       14.50833594       3.28335884       5.80977837  T        0
O       14.62088632      10.97346840       2.03490499  T        0
O        4.68468085       3.38960640       5.75008298  T        0
O       11.36776495       8.29368633       3.66460716  T        0
O        7.66483250       8.54273613       3.87122341  T        0
O        1.81802793      13.11771658      -0.00307524  T        0
O       11.38615003       5.77168301       3.67477705  T        0
O        7.88572655       5.79753018       3.70484697  T        0
O        9.50032688      10.45719687       3.75333554  T        0
O       -0.04572335      11.21351095      -0.33406600  T        0
O        9.60574513       3.81846551       3.75269171  T        0
O       13.32227342       7.03266992       5.13967040  T        0
O        5.49389141       6.92945336       5.05513048  T        0
O        5.84465021       7.37042490       2.19250620  T        0
O       13.45771881       7.02887943       2.46354714  T        0
O       14.16517685       7.05634833      -0.06180176  T        0
O        4.61642025       7.04282610      -0.14418130  T        0
Si       6.16457473       2.77313777       1.44512850  T        0
Si      15.90689870       9.99569018       5.42691647  T        0
Si      13.01151209       2.76955983       1.41952073  T        0
Si       3.24003506       9.98209463       5.43545329  T        0
Si       6.08374111      11.49963831       1.51172360  T        0
Si      15.82158605       4.17756169       5.39857406  T        0
Si      13.19093830      11.48098798       1.40115698  T        0
Si       3.27089507       4.13130490       5.37367009  T        0
Si      13.10932516      11.47802520       6.08719560  T        0
Si       3.34104097       4.21667106       2.16748865  T        0
Si       6.05127841      11.49629780       6.11784171  T        0
Si      15.84794175       4.19337281       2.16481367  T        0
Si      12.98481804       2.76889691       6.10298986  T        0
Si       3.24998286      10.06151596       2.21099723  T        0
Si       6.17482002       2.80293407       6.08131777  T        0
Si      15.92911868      10.03117641       2.22602696  T        0
Al      11.25176517      10.16270993       3.65549873  T        0
Si       7.93747301      10.17113315       3.82119906  T        0
Si       1.55063142      11.47825882      -0.04901659  T        0
Si      11.21783086       4.09394713       3.75412000  T        0
Si       7.98657485       4.14193565       3.75970069  T        0
Si      14.66844069       7.08403015       6.09890488  T        0
Si       4.26732952       7.02208176       6.09371988  T        0
Si       4.37094036       7.17297850       1.45827793  T        0
Si      14.76860680       7.10793494       1.46842173  T        0
Si      12.47389408       7.08091936       3.75433546  T        0
Al       6.64276122       7.08566288       3.81425208  T        0
O        6.69522951       3.20157689       7.59087086  T        0
O       12.43055960       3.19101318       7.59044889  T        0
O        6.64673693      11.04055583       7.58331654  T        0
O       12.60394851      10.96961051       7.57847263  T        0
O       14.10727568       7.03974257       7.64700126  T        0
O        4.92821611       7.02161165       7.60587494  T        0
O        3.57040259       8.46099383      -2.15178305  T        0
O        3.41718933       5.84562629      -2.30645557  T        0
O        6.32076216      13.06981369      -2.15871255  T        0
O        2.37374042      10.74855032      -1.27790644  T        0
O        7.56819918      10.70801116      -2.36963673  T        0
O        2.79755011      10.39897216      -3.86217919  T        0
O        4.86849516      10.78051866      -2.19766269  T        0
O        5.91133992       7.05683320      -2.33012130  T        0
Si       3.39648530      10.07995952      -2.36205066  T        0
Si       6.25932004      11.47547927      -1.72961586  T        0
Si       4.36404993       7.08176924      -1.75620603  T        0
H        5.61083456       0.52083913       2.07985367  F        0
H       13.50938118       0.51971906       2.07492992  F        0
H        5.61112307      13.75835362       2.07975607  F        0
H       13.50958039      13.75682243       2.07498241  F        0
H       13.51084140      13.75504172       5.44776650  F        0
H        5.62495998      13.75277707       5.44935724  F        0
H       13.50975252       0.52161770       5.44778410  F        0
H        5.62509051       0.52255101       5.44942550  F        0
H       17.28974254      11.12548174       7.01862795  F        0
H        1.83343022      11.12554006       7.01950242  F        0
H       17.28979000       3.14560285       7.02339196  F        0
H        1.81954193       3.15353441       6.98813474  F        0
H        1.83183800       3.14857954       0.53722786  F        0
H       17.29134854       3.14797220       0.53999843  F        0
H       17.29120144      11.12876736       0.54010345  F        0
H        6.35952436       2.97904956      -0.93427223  F        0
H       12.76076393       2.97683097      -0.93375646  F        0
H       12.76174962      11.29928001      -0.93393629  F        0
H        2.56257806      13.76129914       0.00087584  F        0
H       -0.96427299      11.34215683       0.00103770  F        0
H       14.60982961       7.13673871      -0.92783774  F        0
H        6.35949513       2.97597070       8.47938261  F        0
H       12.76321398       2.97604733       8.47995589  F        0
H        6.35946036      11.30224636       8.48133548  F        0
H       12.76333233      11.30075111       8.47967776  F        0
H       14.61405599       7.13800201       8.47661577  F        0
H        4.50898861       7.14016697       8.47499567  F        0
H        3.36064390       4.89097090      -2.09366187  F        0
H        5.62495998      13.75277707      -2.09714276  F        0
H        7.72914317      10.28615024      -3.24155184  F        0
H        3.19736723      10.11759060      -4.70766930  F        0
H        6.23944212       7.13797332      -3.24031999  F        0
Fe       9.67745376       7.10017750       3.00796315  T        1
Fe       7.47597286       8.51455249       1.50313790  T        2
O        9.03664744       7.60986816       1.34131865  T        3
