133
Lattice="20.102 0.0 0.0 0.0 19.731 0.0 0.0 0.0 13.253" Properties=species:S:1:pos:R:3:move_mask:L:1:tags:I:1 i=77 E=-3472.0240129048 regions="_JSON [\"Active\"]" n_terminators=32 energy=-896.4111482279955 pbc="F F F"
O        9.97405417       8.44972531       9.24287893  T        0
O        7.64962707       8.50047755      10.52703714  T        0
O       17.97435387       8.41542020       9.23073025  T        0
O        7.89334450       6.92366131       8.40846401  T        0
O       11.94844668      16.84247228       4.68638612  T        0
O       11.86065498      12.76649036       4.68992758  T        0
O        7.75947383       9.61453247       8.19278908  T        0
O        6.64791525       8.77150311      12.87421786  T        0
O       16.73500590       8.80506434       6.98824401  T        0
O        6.16334367      19.03976820      10.87572329  T        0
O        6.10802749      10.68551548      10.98938744  T        0
O       16.62218521      10.72590036       8.92281111  T        0
O       16.33865352      19.01644188       8.80605556  T        0
O        4.94625416       8.31305512      10.84992633  T        0
O       15.25437505       8.43147409       9.20534915  T        0
O       14.07885665      17.45038512      11.92591523  T        0
O       14.20427558      12.17409771      12.03684251  T        0
O        5.82804627      10.75920652       6.66145513  T        0
O        5.81559023      18.94889188       6.67294071  T        0
O       16.09358527      18.82000947      13.17475014  T        0
O       16.12806304      10.56726227      13.17416951  T        0
O       14.43658239      19.98676641      11.33954568  T        0
O       14.34002364       9.63050542      11.35074100  T        0
O        7.95898454      12.17296859       7.57383780  T        0
O        7.97699055      17.49809607       7.54014132  T        0
O        8.26940631      10.15580449       5.75020567  T        0
O        8.20844305      19.51353709       5.68979681  T        0
O       11.49794670       8.83655758       7.20337009  T        0
O       12.65714618       8.37061795       9.66438287  T        0
O       11.40933623      10.66011515       9.24576750  T        0
O       11.34136719      18.93777744       9.26308903  T        0
O       16.35074186      17.45938984       4.86867459  T        0
O       14.26960356       6.92268820      11.23748431  T        0
O       16.24188897      12.54788828       4.48715181  T        0
O       10.08144213      16.45394134       9.26670463  T        0
O        9.95748010      13.01302208       9.18003543  T        0
O        7.27861832      16.71802920      10.26628777  T        0
O        7.46989370      12.76247208      10.15850361  T        0
O       17.86255242      13.09400492       9.41701671  T        0
O       17.76590749      17.14622969       9.88400186  T        0
O        8.12704123      14.71115619       8.42377371  T        0
O        6.29749893      17.26778582      12.75949316  T        0
O        6.53423897      12.80668455      12.63964040  T        0
O       16.57924578      12.74425101       7.16902241  T        0
O       16.58376924      16.76372041       7.40378508  T        0
O        4.58562510      16.86050351      10.75718087  T        0
O        4.78069614      13.02692398      10.69768704  T        0
O       15.13989487      12.88378445       9.40583455  T        0
O       15.08751573      16.79763594       9.54687833  T        0
O       15.92819827      14.87043869       5.65196050  T        0
O       14.15077772      12.88916054       6.12598696  T        0
O       14.16002191      16.76656521       6.24378525  T        0
O       12.30005334      14.81287362       6.30281277  T        0
O       11.84113373      12.41957014       7.33363895  T        0
O       11.82986252      17.19590845       7.35243967  T        0
O       12.31988767      13.16684751       9.89327011  T        0
O       12.46695295      16.54566195       9.90661962  T        0
O       14.00960150      14.90213030      11.15801952  T        0
Si       8.34647867       8.36374434       9.05935942  T        0
Si       6.33467258       9.08838204      11.29821979  T        0
Si      16.62016670       9.12020217       8.60436646  T        0
Si      14.57710212      18.89556041      12.53029008  T        0
Si      14.58787394      10.69689130      12.56142835  T        0
Si       7.43438963      10.70709403       7.04657858  T        0
Si       7.43872625      18.93783866       7.03432840  T        0
Si      11.43207631       9.05214255       8.83505706  T        0
Si      14.13697395       8.33805893      10.40196108  T        0
Al       8.24445489      16.40379933       8.86103999  T        0
Si       8.29879524      13.17882235       8.81545900  T        0
Si       6.10735826      17.42236240      11.12687943  T        0
Si       6.20906299      12.31135684      11.10544500  T        0
Si      16.52108472      12.35879035       8.76892227  T        0
Si      16.46548702      17.40277432       8.90720466  T        0
Si      15.73481763      13.26043895       5.87932559  T        0
Si      15.75634400      16.44990209       6.02682661  T        0
Si      12.56503535      13.21975204       6.10205735  T        0
Si      12.57986007      16.40662231       6.13465363  T        0
Si      11.40632538      12.21986739       8.88233702  T        0
Si      11.41272263      17.38102449       8.90776206  T        0
Al      14.01718010      13.22238430      10.67265546  T        0
Si      13.98150040      16.41900594      10.67096733  T        0
O        9.99084877      21.18774116       9.26392754  T        0
O        7.67404983      21.20835483      10.53461259  T        0
O       17.99904449      21.13567853       9.22164184  T        0
O        7.98093071      22.75869570       8.41085161  T        0
O        7.78193712      20.07721699       8.15443807  T        0
O        6.61618743      20.91526748      12.86739825  T        0
O       16.63931370      21.01477160       7.00385041  T        0
O        4.96991793      21.39769528      10.79992358  T        0
O       15.29652770      21.39317785       9.30903129  T        0
O       11.49859303      20.74473438       7.20630643  T        0
O       12.67205877      21.17034804       9.65548761  T        0
O       14.04287468      22.66142372      11.35217380  T        0
Si       8.35945417      21.29542607       9.06025396  T        0
Si       6.34464219      20.60991848      11.27836182  T        0
Si      16.56045692      20.62394992       8.60089686  T        0
Si      11.40933893      20.53933434       8.83429292  T        0
Si      14.10957232      21.30139577      10.43005104  T        0
O       13.56250987      19.39234558      13.71913582  T        0
O       13.59724061      10.13737138      13.75488888  T        0
H       18.28958667       8.42947104      10.15436836  F        0
H        7.84356088       6.72376138       7.45668423  F        0
H       11.77741499      17.76721957       4.45015374  F        0
H       11.77741500      11.82883679       4.45015372  F        0
H        6.01931354       8.91222751      13.59787507  F        0
H       16.07044731       8.91222497       6.28158540  F        0
H        4.52133035       8.52501985      10.00226603  F        0
H        5.06295559      10.84500939       7.26028495  F        0
H        5.06295559      18.75104696       7.26028496  F        0
H       16.97340650      18.78964577      12.75613404  F        0
H       16.97340651      10.80641058      12.75613404  F        0
H        8.50665683      10.58475679       4.91774357  F        0
H        8.50665683      19.01129957       4.91774358  F        0
H       12.20788617       8.97653229       6.55602501  F        0
H       15.87290964      17.87210703       4.12309272  F        0
H       14.56690736       6.77574372      12.16034191  F        0
H       15.87290964      11.72394929       4.12309273  F        0
H       18.05303808      13.25020103      10.35989921  F        0
H       18.05303809      16.34585533      10.35989921  F        0
H        5.86807409      16.61444052      13.33116226  F        0
H        5.86807409      12.98161584      13.33116226  F        0
H        4.26454119      16.60174699       9.87579966  F        0
H        4.26454119      12.99430937       9.87579967  F        0
H       18.28958667      21.16688107      10.15436837  F        0
H        7.84356087      22.87259074       7.45668424  F        0
H        6.01931354      20.68412461      13.59787507  F        0
H       16.07044730      20.68412712       6.28158542  F        0
H        4.52133035      21.07133226      10.00226603  F        0
H       12.20788616      20.61981982       6.55602502  F        0
H       14.56690736      22.82060840      12.16034191  F        0
H       13.51650675      19.01504758      14.61047976  F        0
H       13.51650676      10.58100877      14.61047976  F        0
Fe      11.12250866      14.80014109       9.82864331  T        1
