130
Lattice="24.397 0.0 0.0 0.0 24.397 0.0 0.0 0.0 24.397" Properties=species:S:1:pos:R:3:move_mask:L:1:tags:I:1 i=41 E=-6943.8331748197 regions="_JSON [\"Active\"]" n_terminators=24 energy=-905.0308877358418 pbc="F F F"
O        9.52573074      14.71059823      -0.04534343  T        0
O       12.31653389       9.60818906       2.38370783  T        0
O       14.88237340      21.05158682       6.19759592  T        0
O       12.19062994      15.66755102       8.84876232  T        0
O        9.51122661      18.51728487       3.39223463  T        0
O       15.71098534       9.42206966       6.04476913  T        0
O       18.26214765      14.80147134       8.87613785  T        0
O       21.08242587      12.21399944       3.47890454  T        0
O       21.02211448      15.65341330      -0.02928417  T        0
O       18.35079522      21.06245190       2.65908759  T        0
O       14.45327241       9.57733956       0.06996433  T        0
O        9.46895940      12.29231641       2.57365291  T        0
O       21.06316251      14.81392760       6.08158075  T        0
O       15.64985175      12.16200424       8.84987122  T        0
O       18.07620629       9.35864134       3.68309644  T        0
O        9.47709650      15.59934657       6.25187085  T        0
O       14.82738553      18.29634237       8.87469232  T        0
O       12.25595470      21.09876148       3.50807783  T        0
O       15.66466022      21.05444077      -0.01209144  T        0
O       21.07229769      18.25445048       2.59957816  T        0
O       11.50516498      13.87178014       1.87412456  T        0
O       14.05566466      11.71779264       2.06931902  T        0
O       19.20460332      16.47069183       1.80192755  T        0
O       16.53121955      19.25542078       1.81544528  T        0
O       10.21898897      10.32678653       0.91620565  T        0
O       11.18401680      16.68063882       4.48920146  T        0
O       14.05780581      19.27653469       4.34268424  T        0
O       14.00933825      16.51053699       7.02547041  T        0
O       19.19577330      13.99707031       4.30080936  T        0
O       16.39723587      11.42222510       4.28106701  T        0
O       16.49922078      13.97499429       7.00073080  T        0
O       11.90901185      11.94851270       3.64347541  T        0
O       18.48399708      18.46149539       3.39085044  T        0
O       11.97770204       8.67742476      -0.12866065  T        0
O        8.62038309      12.18900626       0.01328024  T        0
O       12.08360259      14.89738911       6.23618516  T        0
O       12.12289024      18.47411905       2.78194120  T        0
O       15.64254652      18.46365442       6.28930575  T        0
O       18.46525677      15.57028929       6.27598748  T        0
O       18.49189467      11.96603011       2.83371258  T        0
O       14.87233956      12.04066070       6.27377073  T        0
O       10.45083063      16.59705542       1.91505658  T        0
O       13.92805344      10.40130243       4.37859422  T        0
O       20.00176095      13.91123809       1.72960778  T        0
O       16.60801579      20.07267768       4.39409013  T        0
O       16.55018341      10.39981230       1.85011699  T        0
O       10.44216695      14.06357851       4.33560001  T        0
O       13.98300473      20.08114958       1.77587869  T        0
O       20.05468834      16.53774528       4.34453140  T        0
O        7.69570754      10.47546743       1.89687372  T        0
O       16.54229084      16.52702987       7.87475159  T        0
O       13.95084875      13.96028913       7.87596237  T        0
O       10.41516808       7.81186753       1.90338080  T        0
Al      10.82017593      15.27422117       0.91368672  T        0
Si      13.01640262      10.89209375       3.09390780  T        0
Si      19.66700425      15.24670126       0.82165383  T        0
Si      17.48983154      19.71284000       3.06217782  T        0
Al      15.21132640      10.88153403       0.86333835  T        0
Si      10.80836377      13.04660601       3.12254336  T        0
Si      15.28131597      19.70649747       0.85983956  T        0
Si      19.69946307      17.44491290       3.02487730  T        0
Si       8.98959209      11.31798620       1.33548338  T        0
Si      10.80470253      15.32569551       5.31289297  T        0
Si      13.09029933      19.73242699       3.10589399  T        0
Si      15.24678081      17.46597666       7.51204821  T        0
Si      19.69717356      15.23623967       5.26216769  T        0
Si      17.45313007      10.74566592       3.09708354  T        0
Si      15.25157519      13.05185043       7.52324353  T        0
Si      11.22332899       9.08925796       1.25409537  T        0
Si      15.20470621      10.78206404       5.30766844  T        0
Si      19.71339323      13.03966525       3.07900757  T        0
Si      17.45276368      15.22563174       7.50499518  T        0
Si      15.29249240      19.72133600       5.30794675  T        0
Si      10.82260735      17.55229876       3.13290903  T        0
Si      13.04445085      15.27876573       7.49508144  T        0
O       14.73452668      12.17459297      -2.67672130  T        0
O       15.63662599      18.36472650      -2.75219352  T        0
O       12.11706542      14.78243915      -2.56656291  T        0
O       18.34841951      15.64476406      -2.78723289  T        0
O       14.06856113      14.01582697      -0.87654419  T        0
O       16.54651830      16.54041623      -0.97172671  T        0
O       12.98371886      10.16271452      -2.09814641  T        0
O       10.11680215      13.00961712      -2.02529716  T        0
O       12.34126365      15.53697456       0.04218134  T        0
O       15.72433242      12.17163054      -0.15970932  T        0
O       18.42924427      14.88487007      -0.17944349  T        0
O       14.92800286      18.45072493      -0.13183869  T        0
O       12.19948433      12.27504839      -3.47469999  T        0
O       16.54204683      14.01519864      -1.89824177  T        0
O       13.94812186      10.56293891      -4.59148950  T        0
O        7.60916723      14.01022627      -1.66516715  T        0
O       13.99939632      16.56015671      -1.80963039  T        0
O       10.46878005      14.08599137      -4.47981386  T        0
O       13.95071267       7.66723909      -1.66106004  T        0
Si      15.31994315      13.04522375      -1.42874830  T        0
Si      15.28801924      17.49354322      -1.39843027  T        0
Si      13.09382708      15.28428986      -1.37021394  T        0
Si      17.47380129      15.27646347      -1.44324614  T        0
Si      13.35725787       9.03039362      -0.95951591  T        0
Si      11.20800044      13.52028635      -3.12600936  T        0
Si       8.98013326      13.49095071      -0.92395969  T        0
Si      13.45892337      11.27453038      -3.19476069  T        0
H       14.01033133      21.15748981       6.62630180  F        0
H       11.67124922      16.48560174       8.95913012  F        0
H        9.33839640      18.82463975       4.28720704  F        0
H       16.48559112       9.33840607       6.62628668  F        0
H       18.82464116      14.01032609       8.95915608  F        0
H       21.15750258      11.67126816       4.28721909  F        0
H       21.15749781      16.48550533      -0.52720743  F        0
H       18.82463422      21.15752504       1.81198193  F        0
H       21.15748967      14.01033142       6.62630180  F        0
H       16.48560162      11.67124930       8.95913012  F        0
H       18.82463962       9.33839646       4.28720704  F        0
H        9.33840600      16.48559124       6.62628668  F        0
H       14.01032599      18.82464129       8.95915608  F        0
H       11.67126808      21.15750273       4.28721909  F        0
H       16.48550522      21.15749796      -0.52720744  F        0
H       21.15752488      18.82463433       1.81198193  F        0
H        7.34352333       9.66479174       1.48837704  F        0
H        9.66479163       7.34352337       1.48837704  F        0
H       16.48557283      18.82464187      -2.86023677  F        0
H       18.82464171      16.48557294      -2.86023676  F        0
H       13.68673308       9.66480596      -4.85513656  F        0
H        7.34352146      13.68671965      -2.53387758  F        0
H        9.66480591      13.68673318      -4.85513656  F        0
H       13.68671953       7.34352150      -2.53387758  F        0
Fe      15.53232399      13.00980667       3.32066107  T        0
Fe      13.48574376      14.00586502       1.27431560  T        1
O       15.34221574      14.50733700       2.00154719  T        2
O       14.37542782      14.59967043       3.14700888  T        3
