135
Lattice="19.123 0.0 0.0 0.0 14.277 0.0 0.0 0.0 7.5465" Properties=species:S:1:pos:R:3:move_mask:L:1:tags:I:1 i=128 E=-2603.9155142701 regions="_JSON [\"Active\"]" n_terminators=32 energy=-906.5071228478556 pbc="F F F"
O       15.34047554       8.53942041       5.77004266  T        0
O       12.78755871       1.17323350       2.08948932  T        0
O       15.61966632       5.92253215       5.52684798  T        0
O       12.84694054      13.16376984       1.68650508  T        0
O       12.65186471      13.33427733       5.64686067  T        0
O       15.75200039       5.95168414       2.10866716  T        0
O       13.07579106       1.15583731       6.05396083  T        0
O       15.55870184       8.56895033       1.78973903  T        0
O       17.13062831      10.65650140       6.17568137  T        0
O       11.63096405       3.50732304       2.36030978  T        0
O       16.93310632       3.97778891       6.66240082  T        0
O       11.84706604      10.75778230       2.41397142  T        0
O       11.63453213      10.87091382       5.09920094  T        0
O       17.10968587       3.39392983       1.28031081  T        0
O       11.90002489       3.45425858       5.02342365  T        0
O       17.00324553      10.78790753       1.28163841  T        0
O       16.25738906      10.21915446       3.74747040  T        0
O       12.62656869       2.85519400      -0.05438903  T        0
O       16.41377759       4.14928875       3.94866367  T        0
O       12.72697612      11.22538681      -0.09260106  T        0
O       14.24514562      11.26818510       5.66695402  T        0
O       14.28511965       3.42922544       1.97385448  T        0
O       14.46231114       3.42949579       5.70855253  T        0
O       14.44298829      11.00859482       1.95369087  T        0
O       11.48801689       8.50304179       3.82510251  T        0
O       17.33814090       1.08551217      -0.18551647  T        0
O       11.42519539       5.79549412       3.73069643  T        0
O       17.30438466      13.12829714      -0.11783908  T        0
O        9.49725825      10.34911153       3.48109564  T        0
O        9.49659951       3.89994162       4.02255631  T        0
O       13.21887917       7.01902596       5.22551349  T        0
O       13.40472832       7.16483208       2.53389043  T        0
O       14.35464442       6.98294698       0.01699712  T        0
Al      15.54113396      10.22500571       5.39341111  T        0
Si      12.87186203       2.75441395       1.57404855  T        0
Si      15.82663078       4.25772499       5.47550897  T        0
Si      12.95752738      11.53194692       1.49837411  T        0
Si      12.72891726      11.71288246       6.00106860  T        0
Al      15.84748594       4.10478409       2.22338651  T        0
Si      12.97442562       2.80412656       6.06979976  T        0
Si      15.80281285      10.14421023       2.16968563  T        0
Si      11.10303913      10.10958053       3.73249750  T        0
Si      17.60453609       2.73356625      -0.11685090  T        0
Si      11.09999930       4.17290314       3.76664040  T        0
Si      17.57918119      11.49676859      -0.08711011  T        0
Si      14.60813980       7.14485651       6.06878041  T        0
Si      14.73987056       7.16376866       1.58899318  T        0
Si      12.37350463       7.12393034       3.81785595  T        0
O       21.60795011      11.09113492       8.99779152  T        0
O       20.93654346      13.15233272       7.42831629  T        0
O       19.21844129      11.23354046       7.65694644  T        0
Si      20.85218696      11.51535743       7.59037798  T        0
O       22.42068922       8.37017444       5.73534015  T        0
O       22.42044151       8.37345866       1.83301074  T        0
O       21.51111087      10.76733626       6.26323022  T        0
O       21.53649041      10.78894918       1.27721458  T        0
O       22.46343214      10.27513790       3.77661026  T        0
O       24.20259797      10.31685732       5.90046582  T        0
O       24.21768412      10.30864549       1.67534603  T        0
O       20.93016360      13.15807011       0.10489357  T        0
O       19.21006739       2.96970974      -0.44494627  T        0
O       19.20828718      11.25190763      -0.10434140  T        0
Si      22.66485967       9.96313876       5.39146235  T        0
Si      22.66625460       9.97020653       2.15576817  T        0
Si      20.84112578      11.51885468      -0.04293085  T        0
O       21.58788262      11.07773812      -1.45275038  T        0
O       12.83377650      13.06845582       9.77746382  T        0
O       15.73245324       5.85690041       9.80694490  T        0
O       15.47648018       8.45035570       9.59082935  T        0
O       11.52324546      10.73647756       9.91439567  T        0
O       16.79883493      10.70813148       8.82043127  T        0
O       16.18238008      10.40679741      11.35004295  T        0
O       12.50628862       3.26703742       7.58057972  T        0
O       12.42763643      11.47574618       7.59874367  T        0
O       14.22089618      10.78307030       9.49144482  T        0
O       17.26291224      13.06968534       7.49213589  T        0
O       13.19110411       6.94611807       9.87285598  T        0
O       14.40303457       6.87994471       7.65328927  T        0
Si      12.78159159      11.51825794       9.19954131  T        0
Si      15.65355486      10.07128136       9.82276484  T        0
Si      17.58440708      11.45115261       7.57522152  T        0
Si      14.71308958       7.03401305       9.25038672  T        0
O       15.49918429       8.45836348      -1.91703816  T        0
O       15.52166613       5.79334951      -2.07272703  T        0
O       12.82121357      13.06156702      -2.12474002  T        0
O       12.81034061       1.19756368      -2.19463148  T        0
O       16.85075734      10.72755196      -1.34670886  T        0
O       16.79117947       3.49995616      -1.33697879  T        0
O       11.58186288      10.70625373      -2.37894017  T        0
O       11.53547218       3.53899157      -2.38010808  T        0
O       16.36847500      10.16681892      -3.84188820  T        0
O       16.28600727       3.88855619      -3.84584717  T        0
O       14.30625397      10.82205164      -2.21997353  T        0
O       14.23216389       3.48455747      -2.11563083  T        0
O       13.14794718       7.13696724      -2.30017507  T        0
Si      15.73583880      10.03426832      -2.32585865  T        0
Si      15.69937440       4.17107762      -2.33281996  T        0
Si      12.88454104      11.45968663      -1.71304338  T        0
Si      12.82399252       2.77515021      -1.68343033  T        0
Si      14.64445968       7.09210906      -1.60070501  T        0
H       13.50938118       0.51971906       2.07492992  F        0
H       13.50958039      13.75682243       2.07498241  F        0
H       13.51084140      13.75504172       5.44776650  F        0
H       13.50975252       0.52161770       5.44778410  F        0
H       17.28979000       3.14560285       7.02339196  F        0
H       16.56036088       0.51548555      -0.00076213  F        0
H       16.56020813      13.76127004      -0.00066979  F        0
H        8.59739021      10.07362933       3.76217937  F        0
H        8.59637561       4.20354031       3.76204115  F        0
H       22.00483182      10.29715766       9.41435165  F        0
H       21.68557806      13.76129914       7.54737584  F        0
H       23.07126003       7.65296290       5.84570001  F        0
H       23.06957714       7.66254159       1.68550051  F        0
H       24.76092223      11.11473374       5.84604825  F        0
H       24.75845825      11.12041654       1.68709931  F        0
H       21.68557806      13.76129914       0.00087584  F        0
H       20.08726577       2.93486642      -0.00052988  F        0
H       22.00608000      10.28902905      -1.85963567  F        0
H       13.50958039      13.75682243       9.62148241  F        0
H       15.75706449       4.89440344       9.62693705  F        0
H       11.39439525      10.28733182      10.77116771  F        0
H       15.92688062      10.11457984      12.25007275  F        0
H       12.76321398       2.97604733       8.47995589  F        0
H       16.56020813      13.76127004       7.54583021  F        0
H       12.88235039       7.13795337      10.76981689  F        0
H       13.51084140      13.75504172      -2.09873350  F        0
H       13.50975252       0.52161770      -2.09871590  F        0
H       11.39521725      10.28762784      -3.24237523  F        0
H       11.39412799       3.98861071      -3.24188863  F        0
H       15.92569105      10.11584057      -4.70878458  F        0
H       15.92661844       4.15901570      -4.70770176  F        0
H       12.88191441       7.13773895      -3.23957932  F        0
Fe      16.91125679       6.37134916       3.78301289  T        0
Fe      17.91537170       9.30968980       4.77519736  T        1
O       18.19810609       7.62363374       4.17302646  T        2
