139
Lattice="24.397 0.0 0.0 0.0 24.397 0.0 0.0 0.0 24.397" Properties=species:S:1:pos:R:3:move_mask:L:1:tags:I:1 i=41 E=-6943.8331748197 regions="_JSON [\"Active\"]" n_terminators=30 energy=-946.3019185596835 pbc="F F F"
O       21.66948642       2.58456087       0.03171336  T        0
O       21.82618442       6.13924402       3.47465030  T        0
O       15.55106161       9.69607632       6.25951283  T        0
O       20.99133949      12.53157892       3.61299589  T        0
O       20.99034461       3.62480694      12.54422698  T        0
O       15.52033086       6.32939140       9.76783272  T        0
O       21.85042648      -0.03630313       2.53038807  T        0
O       18.33720203       9.60586903       3.32127210  T        0
O       21.76224333       3.52882710       5.89294247  T        0
O       18.32852832       3.29598969       9.60227209  T        0
O       23.74279693       1.70465327       1.77617043  T        0
O       22.79445676       5.33694058       7.98431366  T        0
O       22.58949924       7.97954199       5.28670703  T        0
O       17.62081698      10.54658765       7.85533653  T        0
O       20.04679157      10.55903958       5.19172387  T        0
O       23.64571969       4.27964427       4.20892935  T        0
O       17.65625167       7.89080863      10.52077267  T        0
O       20.02815779       5.16939541      10.56430099  T        0
O       20.83238373       5.96339499       5.82689118  T        0
O       18.11775504       8.88264609       5.93459733  T        0
O       21.94605678      12.23968204       6.15131693  T        0
O       20.97040165       0.01138657       0.00398956  T        0
O       24.31299607       2.71675234       6.27661518  T        0
O       24.36307330       6.24331280       2.56811890  T        0
O       18.05651210       5.90441654       8.92779491  T        0
O       21.93393845       6.16264978      12.22757529  T        0
O       22.61942800       4.34346171       1.74146609  T        0
O       22.62005602       4.38997539      10.50065611  T        0
O       20.08404738       8.01034411       4.32521710  T        0
O       16.61699666       8.00968426       8.01355738  T        0
O       22.60709624      10.49151912       4.37333795  T        0
O       22.81528245       1.72318459       4.27872725  T        0
O       20.01608295       4.38354549       7.97995503  T        0
Al      23.32978669       3.01208573       0.73291451  T        0
Si      23.62526632       4.83280263       9.27781613  T        0
Si      21.34709783       7.08785553       4.75706300  T        0
Si      16.95977227       9.27926435       7.02707158  T        0
Si      21.36347590      11.47102286       4.82312919  T        0
Si      23.21595853       0.78186803       2.98761217  T        0
Si      19.13384453       9.28392886       4.72539956  T        0
Al      21.41705664       4.83915091       7.11145527  T        0
Si      23.55334903       9.23330318       4.81325397  T        0
Si      23.16814135       3.02974616       5.17790364  T        0
Si      19.12147394       4.70589010       9.26957501  T        0
Si      23.15140473       5.26011974       2.99843053  T        0
Si      21.35835309       4.82469790      11.46195393  T        0
Si      16.95023528       7.02940406       9.30236378  T        0
O       27.00649373       8.65322018       6.12861309  T        0
O       24.52999268       3.51969347       8.83435105  T        0
O       27.06831154       6.15399905       8.65858132  T        0
O       24.43818108       8.74023243       3.52093152  T        0
O       25.24642374       8.02732137       8.06623331  T        0
O       26.37084647       6.96376362       4.13345743  T        0
O       26.41983433       4.12298196       7.00036920  T        0
O       24.51768513       9.61046999       6.06298886  T        0
O       24.62979898       6.03834182       9.75444220  T        0
O       27.90284924       6.12536874       6.11618074  T        0
O       26.30434654      10.52525427       7.86195671  T        0
O       28.86942150       7.96417786       4.38095418  T        0
O       26.39578004       7.93309926      10.50446357  T        0
O       26.15321221       8.02148009       1.64179439  T        0
O       28.93367106       4.41979108       7.93377458  T        0
O       26.10063187       1.60095877       7.95218300  T        0
Si      25.76362544       9.20364501       7.05013431  T        0
Si      25.81727880       7.03762733       9.25128539  T        0
Si      25.35115828       7.49323461       2.97451799  T        0
Si      27.57704419       5.20208091       7.42868300  T        0
Si      27.54404235       7.42194691       5.19148185  T        0
Si      25.34929309       2.99985628       7.52053142  T        0
O       24.69118857       2.43041007      -2.82843358  T        0
O       26.22842359       1.78761839      -0.69820011  T        0
O       24.36567726      -0.14480069      -3.60949474  T        0
O       26.52727419       4.17303319      -2.06015942  T        0
Si      25.47757560       3.02572219      -1.49999812  T        0
O       24.61336844      -2.71207066       2.41863358  T        0
O       26.30337840      -0.64419645       1.84715573  T        0
O       24.45010757      -3.71064536      -0.08464288  T        0
O       26.32565199      -1.98061284       4.26528911  T        0
Si      25.41952103      -1.40805625       3.01252848  T        0
O       17.97576109       2.41866296      -3.44081267  T        0
O       21.00326214       2.54182659      -6.38739723  T        0
O       19.99427984       0.95556748      -4.49205754  T        0
O       22.68418434       0.97981866      -1.81548638  T        0
O       24.43308197       3.61753789      -0.42161049  T        0
O       18.37553850      -0.15396431      -2.63576846  T        0
O       21.91584063      -0.03971339      -6.13425798  T        0
O       20.06995093       1.66723693      -1.90932527  T        0
O       22.59655896       1.69679258      -4.36891052  T        0
Si      19.08709039       1.22751484      -3.15619481  T        0
Si      21.35189909       1.29124046      -5.35881308  T        0
Si      23.60791675       1.24450070      -3.15844642  T        0
Si      21.33466706       1.27515062      -0.95505326  T        0
O       18.01352796      -3.43223906       2.45226133  T        0
O       21.00111261      -6.40939639       2.52196916  T        0
O       22.64884418      -1.89691445       0.79033411  T        0
O       20.00702245      -4.47688789       0.96113510  T        0
O       24.35371660      -0.27213920       3.50411183  T        0
O       18.36609458      -2.62328408      -0.13232118  T        0
O       21.91240630      -6.12653683      -0.04934595  T        0
O       20.10044731      -1.89319048       1.66434116  T        0
O       22.61202078      -4.38850993       1.71253524  T        0
Si      21.38703513      -0.96620872       1.25580228  T        0
Si      21.35438165      -5.35928073       1.29049936  T        0
Si      23.59440995      -3.17267163       1.21382600  T        0
Si      19.10504145      -3.13561424       1.24236702  T        0
H       15.43757914      10.38640764       5.57209357  F        0
H       20.10951523      12.72546585       3.23923157  F        0
H       20.10951519       3.23923103      12.72546793  F        0
H       15.43757911       5.57209275      10.38640946  F        0
H       17.77043279      10.38640226       3.23924444  F        0
H       17.77043311       3.23924387      10.38640412  F        0
H       17.22544067      10.92750153       8.65411313  F        0
H       17.22544070       8.65411150      10.92750362  F        0
H       21.54216027      12.99764967       6.60187561  F        0
H       21.54216028       6.60187434      12.99765198  F        0
H       25.88537327      10.95404844       8.63278900  F        0
H       29.25185888       7.58759487       3.56561113  F        0
H       25.88537328       8.63278754      10.95405052  F        0
H       26.93058105       7.58756876       1.24433203  F        0
H       29.25185918       3.56561063       7.58759619  F        0
H       26.93058086       1.24433163       7.58757011  F        0
H       26.95192867       1.27083937      -1.07240246  F        0
H       25.19622735      -0.50276655      -3.24494277  F        0
H       26.93057835       4.85486043      -1.48866112  F        0
H       26.95192866      -1.07240650       1.27083969  F        0
H       25.19622853      -3.24494603      -0.50276481  F        0
H       26.93057847      -1.48866524       4.85486109  F        0
H       17.77043356       2.85994955      -4.28747201  F        0
H       20.10952426       2.85994950      -6.62656333  F        0
H       17.49833355      -0.50278089      -2.85477948  F        0
H       21.54221652      -0.50278066      -6.89866328  F        0
H       17.77043326      -4.28747560       2.85995000  F        0
H       20.10952426      -6.62656664       2.85995001  F        0
H       17.49833238      -2.85478383      -0.50277915  F        0
H       21.54221602      -6.89866750      -0.50277915  F        0
Fe      20.36007611       4.32151145       4.56651105  T        0
Fe      20.69489412       3.42440082       1.55230715  T        1
O       19.35177696       4.31863953       2.81198964  T        2
O       19.72218433       2.91117874       3.24908600  T        3
