138
Lattice="20.102 0.0 0.0 0.0 19.731 0.0 0.0 0.0 13.253" Properties=species:S:1:pos:R:3:move_mask:L:1:tags:I:1 i=77 E=-3472.0240129048 regions="_JSON [\"Active\"]" n_terminators=34 energy=-923.2325046334511 pbc="F F F"
O       10.12763049       8.40143834       9.31761380  T        0
O       10.01877203      18.14855515       3.78384124  T        0
O        0.04301026       8.24127490      10.51084645  T        0
O       10.04778885      11.42245194       3.69048503  T        0
O        2.20982180      10.51377090       3.50929421  T        0
O        7.77878899       8.54192664      10.54209717  T        0
O        2.26352639      18.23783841       3.95507633  T        0
O        7.91815784       7.01444109       8.38735872  T        0
O        8.11194729       9.70081589       8.17027636  T        0
O        3.58300483      10.79352461       5.80075467  T        0
O        6.27130886       8.46199743      12.76526668  T        0
O        3.59657334      19.01192541       6.03798370  T        0
O        6.17554159      19.06538349      10.91258211  T        0
O        4.18010821       8.79590936       4.06210261  T        0
O        6.32028163      10.69192114      11.26526180  T        0
O        4.85085755      11.23409902       3.48606515  T        0
O        5.17447978       8.49968504      10.29646408  T        0
O        4.93747970      18.72787019       3.75463558  T        0
O        4.40532807      12.39915645       7.81691642  T        0
O        4.43855902      17.37482482       8.03677576  T        0
O        6.04272494      10.68295053       6.72662805  T        0
O        6.02954953      19.14950912       6.96633107  T        0
O        4.02932896       9.77418044       8.24923464  T        0
O        5.90447928      10.14573512       1.21122320  T        0
O        3.96514646      19.95485521       8.52381519  T        0
O        7.72739451      12.32582027       7.78440320  T        0
O        7.71289564      17.29896774       7.72549595  T        0
O        8.48487358      10.71617069       5.74031958  T        0
O        1.64317518       8.50528156      12.64333016  T        0
O        8.34922586      19.00196465       5.71934716  T        0
O       11.52180899       8.82259669       7.22570519  T        0
O        7.48564907      10.95107276       3.28267353  T        0
O        2.54262515       8.63046856      10.09606725  T        0
O        7.49291387      18.59594147       3.22496743  T        0
O       12.82322891       8.12497956       9.53064324  T        0
O        9.21883288       8.91663255       3.85280957  T        0
O        1.10573990      10.66893829      11.15397501  T        0
O       11.74970928      10.56057795       9.36836495  T        0
O       11.61261228      19.11889704       9.03298977  T        0
O        6.23158028      12.69184708       1.71986128  T        0
O        3.86100563       7.09979159       8.36857330  T        0
O        5.83993631      16.89823417       1.98202502  T        0
O       10.21702865      16.86140420       9.12629284  T        0
O       10.10051212      12.64962981       8.94250117  T        0
O        7.52963843      16.80605590      10.48797052  T        0
O        7.91269317      12.63934035      10.44854183  T        0
O        8.33299308      14.69842164       8.72484898  T        0
O        6.24880094      17.36330599      12.85279449  T        0
O        6.63779557      12.91408021      12.74018065  T        0
O        4.84471086      16.80787315      10.63562296  T        0
O        5.25549565      12.97783728      10.41413357  T        0
O        1.28506648      13.03818552      12.42510429  T        0
O       12.32558400      12.21198297       7.47076610  T        0
O       12.52583707      16.97084728       7.67142419  T        0
O        2.35882270      17.20257802       9.64257230  T        0
O        2.41482297      12.64703313       9.96462659  T        0
O       12.37766785      13.11643657      10.08876411  T        0
O       12.69152202      17.13365133      10.30493183  T        0
O        3.86127301      14.97837954       8.94879371  T        0
Si       8.50710579       8.38958949       9.08704001  T        0
Si       3.68689221      10.36543337       4.21458254  T        0
Si       6.38238934       9.07062273      11.23832778  T        0
Si       3.51492544      19.19135236       4.40749605  T        0
Si       4.45854374      10.88055980       7.17235545  T        0
Si       4.46815304      18.93088098       7.39943554  T        0
Si       7.63128397      10.79260797       7.10356993  T        0
Si       7.63707783      18.85148798       7.16440793  T        0
Si       8.78318657      10.47948105       4.13913106  T        0
Si       1.33570995       9.05566641      11.11380991  T        0
Si       8.73967330      19.12004754       4.13259093  T        0
Si      11.59282287       8.99980719       8.86383957  T        0
Si       6.11854246      11.22380441       2.43694803  T        0
Si       3.91928902       8.48314866       9.26197600  T        0
Si       6.01239376      18.42291917       2.55176937  T        0
Al       8.54512799      16.41409426       9.12769806  T        0
Si       8.55853570      13.14318303       9.04565999  T        0
Si       6.25279530      17.46279495      11.20822111  T        0
Si       6.48251812      12.31933502      11.20496599  T        0
Si       1.18642790      12.29702323      10.93683758  T        0
Si      11.64984025      12.14389970       8.97856559  T        0
Si      11.70184774      17.48153839       9.02834505  T        0
Si       3.83388259      16.51925079       9.39603827  T        0
Al       3.90198984      13.26218831       9.36611380  T        0
O       10.12972018      21.38046120       9.27501048  T        0
O        7.75019349      21.15205723      10.52364955  T        0
O        7.76378998      22.53847665       8.36381632  T        0
O        8.27641405      19.87520832       8.22127455  T        0
O        6.42350490      21.07014473      12.79589677  T        0
O        3.15435378      20.74199844       3.97204174  T        0
O        5.07617693      21.39431836      10.46720338  T        0
O        5.78753202      19.42877836       1.26221937  T        0
O       11.67002773      21.10512844       7.20366948  T        0
O        2.38284594      21.49553828      10.09771773  T        0
O       12.73023783      21.50580843       9.70038006  T        0
O        9.17874662      20.66745516       3.75959223  T        0
O        3.82834563      22.65035411       8.37840567  T        0
Si       8.51282605      21.25439215       9.08515774  T        0
Si       6.34422504      20.65391283      11.21059754  T        0
Si      11.57615446      20.72815905       8.81557712  T        0
Si       3.85246076      21.35731019       9.38984754  T        0
O       -0.18895076      12.86803764      10.22760991  T        0
H       10.94686465      18.29507790       4.04088346  F        0
H       -0.89571882       8.42972886      10.66739018  F        0
H       10.94686465      11.30097846       4.04088346  F        0
H        1.81269882      11.30123319       3.09859993  F        0
H        1.81269882      18.29482316       3.09859994  F        0
H        7.84356088       6.72376138       7.45668423  F        0
H        6.01931354       8.91222751      13.59787507  F        0
H        3.60112680       8.06005012       4.30646574  F        0
H        5.72719027       9.20254625       1.33756862  F        0
H        2.15673527       8.97653516      13.32343298  F        0
H       12.20788617       8.97653229       6.55602501  F        0
H       13.54926599       8.42132791      10.11787432  F        0
H        8.66651872       8.12235896       3.93953912  F        0
H        5.53537813      12.95496052       1.09262639  F        0
H        4.51576461       6.77574371       7.71911054  F        0
H        5.53537813      16.64109584       1.09262638  F        0
H        5.86807409      16.61444052      13.33116226  F        0
H        5.86807409      12.98161584      13.33116226  F        0
H        2.04221098      12.92196288      13.02389096  F        0
H       12.09335996      12.92196996       6.85557054  F        0
H       12.09335995      16.67408638       6.85557055  F        0
H        1.73086688      16.98843832      10.35624453  F        0
H       13.32025657      13.20375310      10.31771692  F        0
H       13.32025658      16.39230324      10.31771692  F        0
H        7.84356087      22.87259074       7.45668424  F        0
H        6.01931354      20.68412461      13.59787507  F        0
H        3.60112680      21.53630199       4.30646574  F        0
H        5.72719026      20.39380587       1.33756863  F        0
H       12.20788616      20.61981982       6.55602502  F        0
H        1.92726146      20.79864952      10.59110356  F        0
H       13.54926599      21.17502420      10.11787433  F        0
H        8.66651872      21.47399316       3.93953912  F        0
H        4.51576461      22.82060840       7.71911054  F        0
H       -1.04605969      13.03623234      10.65268580  F        0
Fe       6.04004585      13.36031647       7.05599401  T        0
Fe       6.03180860      16.33448312       7.12117501  T        1
O        5.98402010      14.87103856       6.07065647  T        2
