145
Lattice="19.123 0.0 0.0 0.0 14.277 0.0 0.0 0.0 7.5465" Properties=species:S:1:pos:R:3:move_mask:L:1:tags:I:1 i=128 E=-2603.9155142701 regions="_JSON [\"Active\"]" n_terminators=32 energy=-983.5384273152265 pbc="F F F"
O       15.95649085       8.43891984       5.56151611  T        0
O       12.92334247       1.36592160       1.56147547  T        0
O       15.51468928       5.92507697       5.80566468  T        0
O       15.67140053       5.88785087       1.77660426  T        0
O       12.89662319       1.12670993       5.62170817  T        0
O       15.85603367       8.52039503       1.62863555  T        0
O       11.68519847       3.61286496       2.40287570  T        0
O       17.09812470       3.44607200       6.09751333  T        0
O       16.87139045       3.55154072       1.14097290  T        0
O       11.60546215       3.43249879       5.08166313  T        0
O       12.55183638       3.46423400      -0.11331191  T        0
O       16.29526769       4.04684426       3.65557741  T        0
O       14.30735384       3.59697047       1.92423556  T        0
O       14.24639587       3.36740895       5.57899827  T        0
O       11.33214649       8.39940985       3.68873222  T        0
O       17.03964742       1.33199539      -0.34055798  T        0
O       11.82457101       5.82337454       3.87321715  T        0
O        9.50711663       4.58064751       3.74425230  T        0
O       13.43121939       7.53822968       5.17046471  T        0
O       15.44882915      -0.05735813       1.28655591  T        0
O       15.33613266       0.04807278       6.18160819  T        0
O       13.53999801       7.36833545       2.50105186  T        0
O       14.16905157       7.19110645      -0.05597878  T        0
O       14.44887239      -0.00879774       3.70381032  T        0
Si      12.85358943       2.97560179       1.44472075  T        0
Al      15.65875163       4.29885562       5.35432533  T        0
Si      15.76013953       4.29132254       2.09240871  T        0
Si      12.81553670       2.74812113       5.96363637  T        0
Si      17.56522201       2.89450902      -0.20048336  T        0
Si      11.13274044       4.33539510       3.77882494  T        0
Si      14.81618901       7.34495846       6.04317731  T        0
Al      13.76068153      -0.07025604       2.00253877  T        0
Si      13.95354159      -0.06425918       5.30028317  T        0
Si      14.80262470       7.25975602       1.47056092  T        0
Si      12.54283518       7.28803354       3.81184483  T        0
Si      16.23189573      -0.08657742      -0.18548158  T        0
O       21.61511651       3.18882572       8.98862199  T        0
O       20.93210341       1.12245926       7.43518290  T        0
O       19.22896750       3.06079569       7.63065645  T        0
Si      20.86067189       2.76441203       7.58092710  T        0
O       22.41748368       5.90375088       5.70477995  T        0
O       22.42067377       5.90524799       1.82094056  T        0
O       21.54011038       3.48434210       6.25241778  T        0
O       21.54162794       3.48323903       1.26317673  T        0
O       22.45785020       3.99441935       3.76012774  T        0
O       24.21881888       3.97010869       1.66307087  T        0
O       24.21763665       3.97382631       5.86432176  T        0
O       20.92032281       1.11103784       0.08226221  T        0
O       19.19537167       3.01065095      -0.06110978  T        0
Si      22.67026002       4.30919489       5.37304387  T        0
Si      22.66838121       4.30759387       2.14321969  T        0
Si      20.83365545       2.75422475      -0.04733973  T        0
O       21.54844123       3.20004252      -1.47082207  T        0
O       19.18493554      -3.19349280       7.84457690  T        0
O       19.17826972      -3.28412654       0.12477168  T        0
O       12.98315628       1.23101643       9.58405035  T        0
O       15.49218903       5.88707343       9.54124189  T        0
O       15.62840603       8.46098144       9.92327060  T        0
O       11.54469372       3.49113354       9.94338509  T        0
O       16.82167294       3.68524225       8.77622057  T        0
O       12.51606633       2.92107090       7.57191303  T        0
O       16.25190037       3.98567761      11.33984960  T        0
O       14.24812117       3.55410399       9.55066869  T        0
O       17.19734806       1.27304254       7.64111920  T        0
O       15.22881323      -0.06086686       8.86032565  T        0
O       13.15554957       7.24079630       9.84230374  T        0
O       14.45917058       7.54702805       7.63645353  T        0
O       14.55806043      -0.04499995      11.39201483  T        0
Si      12.83432268       2.81763773       9.17401363  T        0
Si      15.68419880       4.28655030       9.81825758  T        0
Si      17.59397960       2.86298994       7.58775461  T        0
Si      13.93500826      -0.07047059       9.86530223  T        0
Si      14.69154872       7.28800304       9.22981276  T        0
Si      16.22594835      -0.04652108       7.57107594  T        0
O       17.13770468       3.74479721      -1.55220052  T        0
O       15.17241948      -0.43266336      -1.40488368  T        0
O       13.05547990      -1.42704592       9.59788732  T        0
O       15.72096604      -6.04303975       9.80456625  T        0
O       11.53766602      -3.65605792       9.86557697  T        0
O       16.78733186      -3.72586212       8.81149542  T        0
O       16.27519133      -3.93910609      11.36526436  T        0
O       12.61563360      -3.11648007       7.55915378  T        0
O       14.22360945      -3.83242029       9.57907966  T        0
O       17.14526548      -1.39433871       7.53387999  T        0
Si      12.87962076      -3.00107016       9.17143883  T        0
Si      15.73530630      -4.39098501       9.87542124  T        0
Si      17.57529376      -2.98651263       7.57833252  T        0
O       15.94387992      -6.04906967       5.67940310  T        0
O       12.97044455      -1.55354965       1.66534781  T        0
O       13.21404031      -1.48560778       5.54842539  T        0
O       15.91591716      -5.98789918       1.72929316  T        0
O       17.09476362      -3.68203807       6.15815047  T        0
O       11.63192598      -3.79829887       2.35677694  T        0
O       11.91189551      -3.74589375       5.03314314  T        0
O       16.79132786      -3.53777032       1.22836074  T        0
O       16.12404538      -4.16883942       3.72942277  T        0
O       12.49717861      -3.50289097      -0.15098413  T        0
O       14.44820661      -3.83386695       5.79428783  T        0
O       14.21591532      -3.91066675       1.88966500  T        0
O       11.30865765      -6.08248944       3.79751687  T        0
O       17.27967117      -1.33985135      -0.17537663  T        0
O        9.52019085      -4.08687369       4.07518295  T        0
Si      15.89245203      -4.43259339       5.33414733  T        0
Si      12.83062283      -3.14332149       1.43552177  T        0
Si      13.03127967      -3.04953596       5.98188268  T        0
Si      15.74561530      -4.40089608       2.14375145  T        0
Si      11.09827945      -4.43427335       3.77886203  T        0
Si      17.58222627      -2.96821053      -0.09727589  T        0
O       17.11050787      -3.72643157      -1.48956535  T        0
H       15.75671561       9.37610020       5.45468838  F        0
H       15.75699573       9.38061947       2.07980242  F        0
H       12.76076393       2.97683097      -0.93375646  F        0
H       11.31595404       9.37380971       3.76235534  F        0
H        8.59637561       4.20354031       3.76204115  F        0
H       14.60982961       7.13673871      -0.92783774  F        0
H       22.00636260       3.98381786       9.40800429  F        0
H       21.68544240       0.51556882       7.54734209  F        0
H       23.07136830       6.61169953       5.84807952  F        0
H       23.06898247       6.62073046       1.68518482  F        0
H       24.75935035       3.15857028       1.68481677  F        0
H       24.75385446       3.15950316       5.84781029  F        0
H       21.68544240       0.51556882       0.00084209  F        0
H       21.98145514       3.97853683      -1.88343379  F        0
H       20.08739461      -2.93488337       7.54749186  F        0
H       20.08739461      -2.93488337       0.00099186  F        0
H       15.75699573       9.38061947       9.62630242  F        0
H       11.39369377       3.98884644      10.77146895  F        0
H       15.92754156       4.15729643      12.25107281  F        0
H       12.88235039       7.13795337      10.76981689  F        0
H       14.07270598       0.00010018      12.23669175  F        0
H       16.23925818       3.97887666      -1.85852020  F        0
H       14.44051635       0.00152190      -1.88177140  F        0
H       15.17712900      -6.61799919       9.23343573  F        0
H       11.39439525      -3.98966818      10.77116771  F        0
H       15.92688062      -4.16242016      12.25007275  F        0
H       15.17320598      -6.62175386       5.84596239  F        0
H       15.17712900      -6.61799919       1.68693573  F        0
H       12.76174962      -2.97771999      -0.93393629  F        0
H       12.12595522      -6.62290057       3.76264176  F        0
H        8.59739021      -4.20337067       3.76217937  F        0
H       16.24044124      -3.98714965      -1.86101282  F        0
Fe      17.64483242       2.62612741       4.30812518  T        1
Fe      16.40061895       0.12192327       3.10387650  T        2
O       18.14136334       1.21540396       2.96603924  T        3
O       17.92207418       0.58927056       4.32749725  T        4
