136
Lattice="24.397 0.0 0.0 0.0 24.397 0.0 0.0 0.0 24.397" Properties=species:S:1:pos:R:3:move_mask:L:1:tags:I:1 i=41 E=-6943.8331748197 regions="_JSON [\"Active\"]" n_terminators=24 energy=-953.7215865844889 pbc="F F F"
O        9.43731177      14.60536704      -0.10425238  T        0
O       12.33858202       9.46014711       2.56234048  T        0
O       14.73431383      20.86268886       6.04120113  T        0
O       12.31705189      15.75585204       8.79050036  T        0
O        9.68723012      18.39025140       3.76752856  T        0
O       15.68170631       9.41002283       6.09144502  T        0
O       18.73287785      14.86325563       8.49802965  T        0
O       18.64407891      20.76437497       2.68923914  T        0
O       14.80105445       9.54264570       0.04693051  T        0
O        9.61324386      12.14538387       2.60781424  T        0
O       15.68560283      12.21516439       8.88679310  T        0
O       18.68590035       9.75754317       3.41744821  T        0
O        9.60191821      15.75284885       6.12549433  T        0
O       14.81320583      18.19054706       8.82636143  T        0
O       12.13158616      20.89868279       3.76075390  T        0
O       15.62575836      21.03693279      -0.10814129  T        0
O       11.47939232      13.93792697       1.89843864  T        0
O       14.05773072      11.40897769       1.83118499  T        0
O       13.14462882      20.14153489       8.06995182  T        0
O       10.32532040      17.41529031       8.10729235  T        0
O       10.08526376      20.46204334       5.45465000  T        0
O       16.66568270      19.26795268       1.66243938  T        0
O       10.35371392      10.17089901       0.93482853  T        0
O       11.45964163      16.41702815       4.34184499  T        0
O       14.14007429      18.84869062       4.34004692  T        0
O       14.09216799      16.49269752       6.88100566  T        0
O       16.67068952      11.26161181       4.39602824  T        0
O       16.67899291      13.89683175       7.03423887  T        0
O       12.11835499      11.96762400       3.53311661  T        0
O       12.22434411      21.81368964       6.26566049  T        0
O       12.27519902      18.25811411       9.69585002  T        0
O        8.72316146      18.30046090       6.22918953  T        0
O       18.27576028      18.20419941       3.56043396  T        0
O       12.29029674       8.61150439       0.03137384  T        0
O        8.74846440      12.02108642       0.07446560  T        0
O       12.12784602      14.81921883       6.29425896  T        0
O       12.18942885      18.17017969       2.72764009  T        0
O       15.81695969      18.43231113       6.33606105  T        0
O       18.29594079      15.80507428       6.00911010  T        0
O       18.29972150      12.27940803       2.49486380  T        0
O       14.97772608      12.03049270       6.26846866  T        0
O       10.21717542      16.51474044       1.94183589  T        0
O       14.10155900      10.42243738       4.31944726  T        0
O       14.16623076      22.64108884       7.94999468  T        0
O       10.50628608      16.43997772      10.62172662  T        0
O        7.65709018      19.93772806       4.39241677  T        0
O       10.60064658      22.93773028       4.49112846  T        0
O       16.55826916      20.00038627       4.26303987  T        0
O       16.57380563      10.43649750       1.85534143  T        0
O       10.49608001      13.90459231       4.40178014  T        0
O        7.81665846      16.37238787       7.90548625  T        0
O       14.09887024      20.01527977      10.61223799  T        0
O       14.08143895      20.05055846       1.72559252  T        0
O        7.86058477      10.31526308       1.99286922  T        0
O       16.59079508      16.41841138       7.89424499  T        0
O       14.09981617      13.99470965       7.85112140  T        0
O       10.54091300       7.62089537       1.82150665  T        0
Al      10.69123301      15.23379520       0.87861230  T        0
Si      13.14232777      10.79122545       3.06442917  T        0
Si      13.56214973      21.37948198       7.08017477  T        0
Si      11.34214931      16.97569346       9.31309753  T        0
Si       9.05276856      19.29724042       4.97295287  T        0
Si      17.54476804      19.56951181       3.00999743  T        0
Si      15.30941398      10.83623276       0.90841054  T        0
Si      10.91306725      12.97932769       3.11845027  T        0
Si       9.10987677      16.98128368       7.10346045  T        0
Si      13.57858685      19.16859973       9.30558703  T        0
Si      11.26684434      21.51105325       4.96659187  T        0
Si      15.32648204      19.68944973       0.79544503  T        0
Si       9.13104285      11.15765340       1.38684342  T        0
Si      10.89323635      15.19353764       5.31072683  T        0
Al      13.08809054      19.66214544       3.06454738  T        0
Si      15.34683912      17.39519429       7.49960113  T        0
Si      17.57424300      10.92529846       3.06895569  T        0
Si      15.36764750      13.03305057       7.49325023  T        0
Si      11.36362706       8.95517429       1.33403581  T        0
Si      15.36660231      10.80088247       5.27122755  T        0
Si      17.58703827      15.22165940       7.36767014  T        0
Si      15.33628434      19.55660928       5.25278546  T        0
Si      10.80507644      17.40871239       3.12603707  T        0
Si      13.15713765      15.26384343       7.47788695  T        0
O       14.70093322      12.25842306      -2.58061012  T        0
O       15.74154927      18.19841674      -2.80289662  T        0
O       12.19710270      14.63463627      -2.51734058  T        0
O       18.60437367      15.59686878      -2.51931421  T        0
O       14.10623771      14.03927540      -0.64808457  T        0
O       16.62034310      16.49770616      -0.90729857  T        0
O       13.07600930      10.23928244      -1.89711945  T        0
O       10.12094793      12.92513258      -2.03660630  T        0
O       12.22182225      15.59403192       0.01447041  T        0
O       15.72837999      12.05015089      -0.09800285  T        0
O       18.35731072      14.64375455       0.02345769  T        0
O       14.98373040      18.41489583      -0.18614189  T        0
O       12.19374884      12.16274914      -3.49105809  T        0
O       16.57750294      13.97827253      -1.75011550  T        0
O       14.06935656      10.45049760      -4.41697553  T        0
O        7.48326777      13.47272029      -1.60385511  T        0
O       14.06021423      16.46469601      -1.77727715  T        0
O       10.48866891      14.03379255      -4.45814170  T        0
O       14.12170767       7.74272279      -1.75788131  T        0
Si      15.31371622      13.05998540      -1.29817154  T        0
Si      15.35693290      17.41544188      -1.40339537  T        0
Si      13.10416606      15.23374243      -1.30585006  T        0
Si      17.56657738      15.21953089      -1.29296912  T        0
Si      13.56173718       9.02804998      -0.90391359  T        0
Si      11.22881614      13.43021109      -3.11757054  T        0
Si       8.96488236      13.29840459      -0.91933570  T        0
Si      13.49855826      11.25844198      -3.10557840  T        0
H       16.48559112       9.33840607       6.62628668  F        0
H       18.82464116      14.01032609       8.95915608  F        0
H       18.82463422      21.15752504       1.81198193  F        0
H       16.48560162      11.67124930       8.95913012  F        0
H       18.82463962       9.33839646       4.28720704  F        0
H       16.48550522      21.15749796      -0.52720744  F        0
H       19.09683476      17.79487503       3.24462109  F        0
H       19.09684364      15.44301376       5.59651532  F        0
H       19.09682945      12.70103459       2.85456062  F        0
H       13.68673605      23.15239550       8.63276462  F        0
H        9.66477675      16.80915558      10.95402362  F        0
H        7.34351903      20.83116256       4.61081863  F        0
H        9.66481601      23.15243056       4.61081458  F        0
H        7.34350493      16.80917637       8.63275504  F        0
H       13.68672539      20.83112809      10.95404502  F        0
H        7.34352333       9.66479174       1.48837704  F        0
H        9.66479163       7.34352337       1.48837704  F        0
H       16.48557283      18.82464187      -2.86023677  F        0
H       18.82464171      16.48557294      -2.86023676  F        0
H       19.09678362      15.05286173       0.50248505  F        0
H       13.68673308       9.66480596      -4.85513656  F        0
H        7.34352146      13.68671965      -2.53387758  F        0
H        9.66480591      13.68673318      -4.85513656  F        0
H       13.68671953       7.34352150      -2.53387758  F        0
Fe      13.61332499      16.90447730       3.88082217  T        0
Fe      13.45617771      14.51850141       1.53868817  T        1
O       14.71529266      15.81159150       2.41608576  T        2
O       14.05178974      14.98302110       3.48504444  T        3
