148
Lattice="24.397 0.0 0.0 0.0 24.397 0.0 0.0 0.0 24.397" Properties=species:S:1:pos:R:3:move_mask:L:1:tags:I:1 i=41 E=-6943.8331748197 regions="_JSON [\"Active\"]" n_terminators=24 energy=-1049.6518294454959 pbc="F F F"
O        9.64246539      14.58464440      -0.07656826  T        0
O       12.28842756       9.51720215       2.52647636  T        0
O       14.86948752      21.01900575       6.18276479  T        0
O       12.18754152      15.66260986       8.86941334  T        0
O        9.30761019      18.17687383       3.57327012  T        0
O       15.64491647       9.44252942       6.15219023  T        0
O       18.33507749      14.84758888       8.86537659  T        0
O       21.06112290      12.16737864       3.45696457  T        0
O       20.94882452      15.77737262       0.06853278  T        0
O       18.22058215      20.83931180       2.43280989  T        0
O       14.72255339       9.54430451       0.06839455  T        0
O        9.65363982      12.27489980       2.44232819  T        0
O       21.06022876      14.84519467       6.13974936  T        0
O       15.65754859      12.17679968       8.86922039  T        0
O       18.33319930       9.43334316       3.45435938  T        0
O        9.48069270      15.62596353       6.18542085  T        0
O       14.84046875      18.31991980       8.86823537  T        0
O       12.32920990      21.18872860       3.58278206  T        0
O       15.91196428      20.84578352      -0.07863017  T        0
O       20.97481646      18.20628972       2.51065672  T        0
O       11.66930346      14.01058054       1.91858250  T        0
O       14.03699357      11.44520601       1.85825706  T        0
O       19.04286620      16.45721778       1.85369756  T        0
O       16.48586476      18.82097754       1.91916916  T        0
O       10.30359470      10.21560983       0.85812386  T        0
O       11.29409664      16.53811733       4.38557412  T        0
O       13.96413195      19.19738947       4.38829901  T        0
O       14.00005759      16.50626165       7.05366408  T        0
O       19.21973114      13.92274162       4.38412065  T        0
O       16.57710992      11.27016614       4.38780094  T        0
O       16.52362057      13.98282335       7.05405845  T        0
O       20.28267254      20.19900847       0.84817348  T        0
O       12.07602858      11.99168811       3.55469156  T        0
O       18.50749254      18.42046488       3.55214344  T        0
O       12.21880172       8.61617664       0.01062606  T        0
O        8.67980052      12.08153268      -0.05103176  T        0
O       12.07278259      14.87112598       6.27370397  T        0
O       11.88408512      18.61545193       2.90731595  T        0
O       15.63880613      18.43166936       6.27561520  T        0
O       18.45196671      15.60433228       6.26811227  T        0
O       18.45691114      12.03756204       2.70112505  T        0
O       14.90263684      12.05419522       6.26993854  T        0
O       18.41138998      21.81764380      -0.05944694  T        0
O       21.87677154      18.28153253      -0.00467604  T        0
O       10.45200422      16.63101101       1.83261321  T        0
O       14.03789971      10.41008110       4.34101207  T        0
O       20.07667023      13.96990257       1.83517268  T        0
O       16.51788208      20.02361050       4.33677540  T        0
O       16.52564715      10.41462982       1.83814968  T        0
O       10.47637320      13.98139868       4.34043225  T        0
O       13.87109586      20.04475453       1.83798819  T        0
O       20.09234789      16.45677883       4.33034500  T        0
O       20.07461575      22.68169215       1.89377639  T        0
O        7.81773430      10.41577712       1.89976892  T        0
O       16.55068695      16.53919557       7.89521890  T        0
O       13.96633520      13.95622567       7.89310671  T        0
O       22.79750714      20.00197504       1.85826446  T        0
O       10.48903650       7.69985623       1.86772768  T        0
Al      10.87416109      15.29356463       0.86697594  T        0
Si      13.09817558      10.82107866       3.08154944  T        0
Si      19.66199247      15.24180855       0.91554073  T        0
Si      17.43560873      19.55379955       3.07470748  T        0
Si      15.25355177      10.83027513       0.91950843  T        0
Si      10.94097803      13.06192813       3.07792851  T        0
Al      15.20302509      19.61726730       0.86794277  T        0
Si      19.67427816      17.39673884       3.07308643  T        0
Si       9.09946803      11.24418140       1.28147245  T        0
Si      10.82729390      15.27371332       5.29958451  T        0
Si      13.01683139      19.75107538       3.15645387  T        0
Si      15.24679652      17.45700994       7.52105080  T        0
Si      19.69277656      15.19989520       5.29654232  T        0
Si      17.48081852      10.79763241       3.10957003  T        0
Si      15.26716677      13.04231765       7.52082582  T        0
Si      21.48515258      19.19216078       1.29832712  T        0
Si      11.30521638       9.00943018       1.31068542  T        0
Si      15.29829557      10.80774697       5.30269133  T        0
Si      19.69526206      13.01618552       3.10875566  T        0
Si      17.46487863      15.23899151       7.52011158  T        0
Si      15.22788279      19.67246098       5.29935264  T        0
Si      10.74486413      17.48521397       3.15154434  T        0
Si      13.04831961      15.25987755       7.51978568  T        0
Si      19.24967939      21.39864298       1.27319081  T        0
O       14.76493809      12.16488215      -2.62700844  T        0
O       15.86751884      18.30907432      -2.58829948  T        0
O       12.18493366      14.62375897      -2.58871481  T        0
O       18.32156866      15.72794710      -2.63567394  T        0
O       14.10975254      13.97095337      -0.78389241  T        0
O       16.52232735      16.38362041      -0.78399273  T        0
O       13.05504552      10.21448187      -1.92674459  T        0
O       10.13085946      12.90491880      -2.10404005  T        0
O       17.59474662      20.35336972      -2.10354430  T        0
O       20.27030059      17.43703710      -1.93164522  T        0
O       12.37355304      15.62199314      -0.05156279  T        0
O       15.71121593      12.02085815      -0.10100987  T        0
O       18.47583078      14.78365009      -0.10938192  T        0
O       14.87070598      18.11811427      -0.04946148  T        0
O       12.23697160      12.14483593      -3.52276589  T        0
O       18.34209132      18.25285702      -3.53605867  T        0
O       16.59931280      13.89259928      -1.77720304  T        0
O       14.11704424      10.42257268      -4.42870234  T        0
O       22.76685038      16.40445362      -1.73547847  T        0
O       16.51773785      19.95430982      -4.54637275  T        0
O        7.67139027      13.97706143      -1.67258461  T        0
O       14.11179981      16.38116961      -1.97805756  T        0
O       10.54544950      13.96906137      -4.54895119  T        0
O       16.50199739      22.80619108      -1.68579445  T        0
O       20.07008190      16.37743604      -4.43542903  T        0
O       14.08484275       7.71833920      -1.72698546  T        0
Si      15.32289183      12.98101988      -1.34361187  T        0
Si      15.30217544      17.35451985      -1.41160893  T        0
Si      13.13904367      15.19023296      -1.41242690  T        0
Si      17.51061179      15.17094304      -1.34826242  T        0
Si      13.50866584       9.01476212      -0.90419531  T        0
Si      11.24615844      13.39877890      -3.17946504  T        0
Si      17.09332923      21.45033632      -0.97147859  T        0
Si      19.26942181      16.97393036      -3.13880012  T        0
Si       9.03742184      13.40007177      -0.96564286  T        0
Si      13.51818541      11.21874133      -3.13059781  T        0
Si      21.47400762      16.98708118      -0.91155598  T        0
Si      17.09238511      19.24569688      -3.18289741  T        0
H       14.01033133      21.15748981       6.62630180  F        0
H       11.67124922      16.48560174       8.95913012  F        0
H        9.33839640      18.82463975       4.28720704  F        0
H       16.48559112       9.33840607       6.62628668  F        0
H       18.82464116      14.01032609       8.95915608  F        0
H       21.15750258      11.67126816       4.28721909  F        0
H       21.15748967      14.01033142       6.62630180  F        0
H       16.48560162      11.67124930       8.95913012  F        0
H       18.82463962       9.33839646       4.28720704  F        0
H        9.33840600      16.48559124       6.62628668  F        0
H       14.01032599      18.82464129       8.95915608  F        0
H       11.67126808      21.15750273       4.28721909  F        0
H       20.83112530      23.15241223       1.48839475  F        0
H        7.34352333       9.66479174       1.48837704  F        0
H       23.15241204      20.83112542       1.48839475  F        0
H        9.66479163       7.34352337       1.48837704  F        0
H       13.68673308       9.66480596      -4.85513656  F        0
H       23.15240156      16.80916493      -2.53384338  F        0
H       16.80913871      20.83112323      -4.85512183  F        0
H        7.34352146      13.68671965      -2.53387758  F        0
H        9.66480591      13.68673318      -4.85513656  F        0
H       16.80916481      23.15240172      -2.53384338  F        0
H       20.83112308      16.80913882      -4.85512183  F        0
H       13.68671953       7.34352150      -2.53387758  F        0
Fe      16.02458605      16.86657789       1.43051623  T        0
Fe      13.62387425      14.46994875       1.42838104  T        1
O       14.72218564      15.76939219       2.59002259  T        2
O       15.59743550      14.89239517       1.72036686  T        3
