135
Lattice="20.102 0.0 0.0 0.0 19.731 0.0 0.0 0.0 13.253" Properties=species:S:1:pos:R:3:move_mask:L:1:tags:I:1 i=77 E=-3472.0240129048 regions="_JSON [\"Active\"]" n_terminators=34 energy=-898.8224456692861 pbc="F F F"
O        9.96463057      18.72538968       3.99697422  T        0
O       12.09881754      18.64421211       2.52779941  T        0
O       11.89187022      16.98484031       4.68156784  T        0
O       12.27126846      19.63292896       5.01541652  T        0
O        3.48636558      19.34629299       6.17738699  T        0
O        6.27562755      19.06348206      10.86075665  T        0
O        5.89656772      10.49965424      10.96683175  T        0
O        4.21393275      12.50048736       7.74711945  T        0
O        3.78883561      17.22238613       7.87213987  T        0
O       14.51948283      17.18210717      11.92004729  T        0
O        5.87093519      18.79813610       7.34153083  T        0
O       16.15731755      18.88022080      13.27627857  T        0
O        3.79340915      19.75106837       8.70266677  T        0
O       14.12277884      19.81927434      11.71340172  T        0
O        8.02998731      12.37064244       7.68831760  T        0
O        7.83142545      17.10972784       8.00850762  T        0
O        7.97092254      18.52250447       5.76954107  T        0
O        7.48991296      18.56289693       3.11354105  T        0
O       11.62068407      18.87853865       9.19173348  T        0
O        9.97439923      16.85166178       9.58777555  T        0
O        9.87895303      12.46816373       9.72627242  T        0
O        7.51797573      16.60142417      10.60059576  T        0
O        7.37447169      12.67286762      10.33241730  T        0
O        8.48628403      14.67387660       8.93729355  T        0
O        6.11963217      17.05715296      12.79801874  T        0
O        6.04353951      12.65458230      12.65298326  T        0
O        4.46880487      16.75025514      10.41817405  T        0
O        4.67843387      12.76357852      10.42355665  T        0
O       15.54757874      16.37056593       9.51882919  T        0
O       14.14446406      16.74128334       5.87028810  T        0
O       12.55115483      14.53378293       5.76733209  T        0
O       11.78558354      16.60389230       7.29009030  T        0
O        1.93531352      16.34333875       9.66817300  T        0
O        2.17381888      12.62192730       9.49047053  T        0
O       12.85066170      16.46046156       9.95929198  T        0
O        3.78603268      14.73221191       8.82234596  T        0
O       14.42045132      14.62633202      11.13000645  T        0
Si      11.57662744      18.47242504       4.07931084  T        0
Si       4.24384169      18.74948033       7.50094550  T        0
Si      14.62816215      18.61074505      12.70755680  T        0
Si       7.47537006      18.54664639       7.31409842  T        0
Si       8.43039869      19.15109545       4.33531796  T        0
Si       8.45741095      16.27966982       9.28191303  T        0
Si       8.43881951      13.03974313       9.14509146  T        0
Al       5.93551109      17.37134394      11.00451112  T        0
Si       6.02975665      12.14231063      11.09426676  T        0
Si      12.58205729      16.18682951       5.95339077  T        0
Al      11.64086275      17.08471881       8.91813197  T        0
Si       3.51662728      16.28543401       9.19775307  T        0
Si       3.70001007      13.14722519       9.16129533  T        0
Si      14.29902484      16.19430642      10.60737109  T        0
O       14.05161404      20.70782964      15.88597140  T        0
O        5.42058765      22.44351974      14.76252624  T        0
O        3.99719480      20.65008825      13.32095792  T        0
O        6.07035461      19.81878024      14.90858638  T        0
O        9.10993117      20.63023449      17.06153170  T        0
Si       5.47657771      21.01235919      13.94246345  T        0
O       10.20190598      20.96765095       9.43962692  T        0
O        7.72780413      21.22100004      10.27987939  T        0
O        8.56251860      22.48000594       7.99081584  T        0
O        8.24623858      19.75277547       8.11631983  T        0
O        6.41674529      21.09630282      12.60019862  T        0
O        5.10656348      21.42358433      10.27282169  T        0
O       15.61321343      20.42337020       9.68507861  T        0
O       14.24694604      20.72127306       6.54780272  T        0
O       12.64536125      22.32400552       5.17256864  T        0
O       11.79091611      20.86523899       7.31170115  T        0
O        2.38362100      21.52079763      10.13433126  T        0
O       12.93867692      21.14068207       9.73462949  T        0
O        8.29205652      20.79358222       4.52659502  T        0
O        3.74784591      22.44962835       8.17912517  T        0
O       14.72145596      22.44368774      11.26743543  T        0
Si       8.61982431      21.12881127       8.92141774  T        0
Si       6.35393694      20.66968760      11.01365887  T        0
Si      12.71527401      20.87729678       5.95628465  T        0
Si      11.70696553      20.49000328       8.88486068  T        0
Si       3.78543724      21.26967578       9.32200988  T        0
Si      14.35008186      20.98031514      10.59399119  T        0
O        9.87538212      18.24652818      17.60647865  T        0
O       12.13581605      18.79832745      16.27238039  T        0
O       12.06953956      16.87614954      18.14040720  T        0
O       11.88780929      19.45116488      18.93468170  T        0
O       13.68423546      18.70497557      14.04815070  T        0
O        4.58770433      19.19463632      16.94900262  T        0
O       14.63136915      18.23177350      16.55756331  T        0
O        8.16668115      19.53214666      19.32065821  T        0
O        7.27453477      18.61846458      16.97084631  T        0
O        5.93163446      12.60332482      15.35253563  T        0
O        5.72455634      17.20575796      15.41321361  T        0
O        5.47190481      14.84260595      14.09564832  T        0
O        3.63422765      16.84749641      13.91986572  T        0
O        3.65643388      12.83123094      13.97105145  T        0
Si      11.51697758      18.37062431      17.73801663  T        0
Si      13.61176003      19.12679987      15.63618369  T        0
Si       8.58411407      19.23348821      17.75006404  T        0
Si       5.90345638      18.69680667      16.08908077  T        0
Si       5.22368010      16.45138317      14.05365574  T        0
Si       5.26449025      13.21740601      13.98642646  T        0
H       13.03074803      18.74401529       2.26762503  F        0
H        3.46536401      19.01504758       5.26900440  F        0
H        6.59189033       9.81912404      11.03827922  F        0
H        4.35449611      11.55048736       7.68308178  F        0
H       16.97340650      18.78964577      12.75613404  F        0
H        7.69777211      11.47779022       7.44841170  F        0
H        6.55301950      18.28668004       3.13509397  F        0
H       10.76020325      12.42648900       9.31164420  F        0
H       15.75661380      17.16906248       9.00459925  F        0
H       14.91456244      16.34672163       6.30897701  F        0
H       12.17714150      13.88298772       6.40017283  F        0
H        1.73086688      16.98843832      10.35624453  F        0
H        1.73086689      12.60761804      10.35624453  F        0
H       14.11111956      13.86848064      10.59245558  F        0
H       13.65226955      21.53630200      15.57301841  F        0
H        6.01932000      22.79280763      15.45091456  F        0
H        3.12887898      20.67205847      13.74983427  F        0
H        8.66651872      21.47399316      17.19253912  F        0
H        7.84356087      22.87259074       7.45668424  F        0
H       16.04398914      20.66501564       8.84225549  F        0
H       15.03932989      20.71065726       5.99268335  F        0
H       11.89104871      22.77092679       4.74838323  F        0
H        1.92726146      20.79864952      10.59110356  F        0
H        8.66651872      21.47399316       3.93953912  F        0
H        4.51576461      22.82060840       7.71911054  F        0
H       14.56690736      22.82060840      12.16034191  F        0
H       12.25872462      16.58911350      19.04928408  F        0
H       12.34310542      20.30287261      18.81988324  F        0
H        4.05829635      18.79668859      17.66371282  F        0
H       15.58095514      18.39037197      16.50370227  F        0
H        7.89439933      18.84188441      19.94994329  F        0
H        5.82176689      11.72394931      15.75639142  F        0
H        2.98936131      16.34896307      13.39901228  F        0
H        2.98936131      13.24709329      13.39901228  F        0
Fe       8.03806441      17.61421781      12.55877598  T        1
Fe      10.17967266      18.76060284      10.66283698  T        2
O        9.53200960      18.59877351      12.35966754  T        3
