139
Lattice="20.102 0.0 0.0 0.0 19.731 0.0 0.0 0.0 13.253" Properties=species:S:1:pos:R:3:move_mask:L:1:tags:I:1 i=77 E=-3472.0240129048 regions="_JSON [\"Active\"]" n_terminators=34 energy=-927.6065465635999 pbc="F F F"
O       10.09808275       8.23214741       9.36763580  T        0
O       18.04073429       8.51812177       9.21298547  T        0
O       11.74189468      16.85073851       4.76888884  T        0
O       11.92429577      12.74229633       4.73101707  T        0
O       16.66055734       8.61701270       7.00224058  T        0
O        6.41215543      19.01567840      11.23563900  T        0
O        6.90334224      10.70105436      10.78120842  T        0
O       16.39202279      10.64197971       8.77812469  T        0
O       16.62251197      18.78757198       9.07614495  T        0
O       15.35093051       8.26985206       9.33844320  T        0
O       14.25834150      17.41111338      11.88538073  T        0
O       14.32295777      12.18357382      12.09782428  T        0
O        5.72197434      19.21284479       6.71156752  T        0
O       16.12457409      18.92031664      13.20426397  T        0
O       16.15969707      10.45368025      13.15537210  T        0
O       14.25398970      20.02406866      11.53453081  T        0
O       14.31600232       9.65754663      11.32372418  T        0
O        7.82760503      12.43605053       7.50917839  T        0
O        7.73566961      17.53240986       7.38451264  T        0
O        8.11377133      19.57874506       5.59995255  T        0
O       11.47766680       8.81999073       7.18164662  T        0
O       12.72164991       8.38142084       9.58368062  T        0
O       11.35049649      10.61878996       9.21466022  T        0
O       11.63365707      19.00923781       9.13109394  T        0
O       16.23654642      17.08095747       4.55416445  T        0
O       14.08390363       6.94402863      11.32897990  T        0
O       16.32279185      12.40482150       4.65279299  T        0
O        9.89638928      16.95957720       9.37633420  T        0
O        9.87995108      12.86345130       9.25618440  T        0
O        7.42244344      16.77260256      10.27045362  T        0
O        7.37280018      13.12926358      10.13759748  T        0
O       17.93401904      12.54875380       9.69316211  T        0
O       17.72250713      16.32524444       9.44742046  T        0
O        8.32877124      14.83766562       8.37353982  T        0
O        5.91675446      16.66986774      12.42770844  T        0
O        5.99818616      12.79041741      12.38667344  T        0
O       16.66445611      12.80232338       7.26411781  T        0
O       16.46810743      16.85595488       7.22654268  T        0
O        4.78241667      17.40463591      10.02892990  T        0
O        4.80357628      12.20101841      10.04998088  T        0
O       15.26136360      12.97462071       9.46765911  T        0
O       15.04116893      16.67601984       9.45360495  T        0
O       15.74682662      14.77917729       5.72086469  T        0
O       14.16690608      12.70301591       6.24655414  T        0
O       14.06900561      16.87078007       6.13540985  T        0
O       12.43598325      14.76794837       6.23784101  T        0
O       11.81758956      12.48460193       7.42259582  T        0
O       11.74907472      16.99837249       7.43905276  T        0
O       12.36184129      12.99065817      10.02143800  T        0
O       12.41415198      16.63474507      10.02728870  T        0
O       13.83073304      14.87340897      11.12795264  T        0
Si      16.59824188       9.03295461       8.59928406  T        0
Si      14.58962499      18.84703139      12.60552184  T        0
Si      14.61948180      10.66425642      12.57317723  T        0
Si       7.35034680      19.04648019       6.96072531  T        0
Si      11.43331247       9.02348558       8.82472903  T        0
Si      14.12835482       8.31771915      10.42400395  T        0
Al       8.28547770      16.52684683       8.65018220  T        0
Si       8.34193353      13.29521327       8.81272469  T        0
Si       6.10645316      17.45718527      11.00938456  T        0
Si       6.24265440      12.20544388      10.87296580  T        0
Si      16.55564540      12.26642295       8.82052933  T        0
Si      16.47188902      17.18347809       8.81391762  T        0
Si      15.72476716      13.16568886       5.98204413  T        0
Si      15.62560459      16.38587041       5.90829353  T        0
Si      12.60041767      13.15774224       6.16495843  T        0
Si      12.51359031      16.37485066       6.13892527  T        0
Si      11.34782800      12.21479389       8.95607320  T        0
Si      11.41406351      17.42326206       8.96316474  T        0
Al      14.07660100      13.13807608      10.68210260  T        0
Si      13.96180098      16.42389319      10.63123777  T        0
O       14.04093379      20.74056592      15.97294400  T        0
O       10.02200318      21.13065115       9.29405396  T        0
O        7.67241855      21.23219704      10.51723318  T        0
O       17.96211810      21.10817185       9.23550068  T        0
O        8.05839812      22.75569074       8.39641200  T        0
O        7.83226141      20.06485368       8.14932114  T        0
O        6.59121727      21.08238324      12.91835002  T        0
O       16.70351289      20.58215955       7.02037799  T        0
O        4.94004600      21.24856679      10.85960533  T        0
O       15.23145565      21.03159251       9.25981827  T        0
O       11.62940201      20.99099103       7.24364441  T        0
O       12.65898942      21.30985390       9.76714403  T        0
O       14.43632630      22.68813611      11.20447903  T        0
Si       8.40469096      21.29103375       9.05227009  T        0
Si       6.39533305      20.65282946      11.34639776  T        0
Si      16.60470129      20.38128936       8.64838188  T        0
Si      11.49814572      20.61744973       8.84245197  T        0
Si      14.14067877      21.25161502      10.46033621  T        0
O       12.08238736      18.79019668      15.97393571  T        0
O       13.65977850      19.02596527      13.92409645  T        0
O       13.60483705      10.13147233      13.75775224  T        0
O       14.64020976      18.19063663      16.36550367  T        0
O        6.08219013      12.20552202      14.94612656  T        0
O        6.06377799      17.25836317      15.02873760  T        0
O        5.50349736      14.74004130      14.14891830  T        0
O        3.67299119      16.75253112      13.96165469  T        0
O        3.69458431      12.74944254      13.85075779  T        0
Si      13.61926358      19.19597895      15.55727359  T        0
Si       5.27507700      16.34519756      13.91577198  T        0
Si       5.30634913      13.13034592      13.83634578  T        0
H        9.15542084       8.42972578       9.21208484  F        0
H       18.28958667       8.42947104      10.15436836  F        0
H       11.77741499      17.76721957       4.45015374  F        0
H       11.77741500      11.82883679       4.45015372  F        0
H       16.07044731       8.91222497       6.28158540  F        0
H        6.59189033       9.81912404      11.03827922  F        0
H        5.06295559      18.75104696       7.26028496  F        0
H       16.97340650      18.78964577      12.75613404  F        0
H       16.97340651      10.80641058      12.75613404  F        0
H        7.69777211      11.47779022       7.44841170  F        0
H        8.50665683      19.01129957       4.91774358  F        0
H       12.20788617       8.97653229       6.55602501  F        0
H       15.87290964      17.87210703       4.12309272  F        0
H       14.56690736       6.77574372      12.16034191  F        0
H       15.87290964      11.72394929       4.12309273  F        0
H       18.05303808      13.25020103      10.35989921  F        0
H       18.05303809      16.34585533      10.35989921  F        0
H        4.26454119      16.60174699       9.87579966  F        0
H        4.26454119      12.99430937       9.87579967  F        0
H       13.65226955      21.53630200      15.57301841  F        0
H       18.28958667      21.16688107      10.15436837  F        0
H        7.84356087      22.87259074       7.45668424  F        0
H        6.01931354      20.68412461      13.59787507  F        0
H       16.07044730      20.68412712       6.28158542  F        0
H        4.52133035      21.07133226      10.00226603  F        0
H       12.20788616      20.61981982       6.55602502  F        0
H       14.56690736      22.82060840      12.16034191  F        0
H       11.86384156      18.29482316      16.78088422  F        0
H       13.51650676      10.58100877      14.61047976  F        0
H       15.58095514      18.39037197      16.50370227  F        0
H        5.82176689      11.72394931      15.75639142  F        0
H        5.82176689      17.87210706      15.75639142  F        0
H        2.98936131      16.34896307      13.39901228  F        0
H        2.98936131      13.24709329      13.39901228  F        0
Fe      11.65638220      14.61672728      11.03513735  T        0
Fe       9.08649385      16.30434175      11.28833163  T        1
O       10.67936556      15.81555844      12.40203975  T        2
O        9.88123232      14.58170129      12.01400553  T        3
