147
Lattice="24.397 0.0 0.0 0.0 24.397 0.0 0.0 0.0 24.397" Properties=species:S:1:pos:R:3:move_mask:L:1:tags:I:1 i=41 E=-6943.8331748197 regions="_JSON [\"Active\"]" n_terminators=24 energy=-1044.6397443110848 pbc="F F F"
O        9.62096588      14.60360707      -0.08472092  T        0
O       12.34704584       9.53278500       2.46739554  T        0
O       14.85023440      20.85766447       6.21211978  T        0
O       12.22892621      15.69244194       8.77586749  T        0
O        9.79431285      18.48377619       3.68482842  T        0
O       20.91904684      15.67287550      -0.01887917  T        0
O       18.44326710      20.80449726       2.65929013  T        0
O       14.67599275       9.61014297       0.08281939  T        0
O        9.65038810      12.14317303       2.57490336  T        0
O        9.60591481      15.65021283       6.18609268  T        0
O       14.76194917      18.22827797       8.78531516  T        0
O       12.01966226      20.72499500       3.68917478  T        0
O       15.83747918      20.89004375      -0.20770113  T        0
O       21.02401714      18.20159450       2.56531834  T        0
O       11.59792157      13.84343636       1.84178198  T        0
O       14.05481535      11.57199404       1.87834600  T        0
O       13.06950741      20.22380617       8.12690373  T        0
O       10.26133917      17.41014305       8.10904423  T        0
O       10.09990975      20.40691448       5.52651240  T        0
O       19.21137381      16.31105426       1.95400419  T        0
O       16.55133108      19.05114847       1.91660872  T        0
O       10.33347626      10.22162886       0.84683808  T        0
O       11.41363994      16.49355066       4.44536010  T        0
O       14.06905553      19.14131578       4.36562350  T        0
O       14.15498348      16.29853619       7.00677322  T        0
O       20.36764208      20.19402939       0.88012749  T        0
O       12.14130665      11.97954473       3.60753870  T        0
O       12.31042276      21.76833310       6.13290298  T        0
O       12.23806036      18.22933051       9.65230520  T        0
O        8.72702287      18.20029268       6.11605378  T        0
O       18.52412965      18.29506710       3.56178787  T        0
O       12.22116739       8.58121724      -0.01037693  T        0
O        8.68315891      12.09807802       0.04909185  T        0
O       12.14258971      14.73451569       6.28193915  T        0
O       12.29099334      18.22433411       2.65562368  T        0
O       15.69566845      18.30979640       6.28214246  T        0
O       18.38020656      21.71491514       0.12341936  T        0
O       21.86592663      18.18474653       0.03597901  T        0
O       10.40945528      16.50985046       1.96699913  T        0
O       14.12616881      10.22750742       4.26204629  T        0
O       14.13405280      22.71446271       7.88959980  T        0
O       10.48630537      16.41209775      10.61333533  T        0
O        7.70639867      19.96322336       4.35428956  T        0
O       10.55348959      22.81753112       4.39150480  T        0
O       20.16856251      13.78255487       1.70267522  T        0
O       16.64478109      19.95642839       4.43702135  T        0
O       16.49714315      10.29722344       1.84422462  T        0
O       10.51880576      13.95695510       4.33250758  T        0
O        7.75267046      16.38312381       7.86107163  T        0
O       14.03847670      19.97779874      10.63896187  T        0
O       13.89499472      20.10623949       1.84767349  T        0
O       20.30939661      16.45488487       4.40979949  T        0
O       20.13650622      22.66423222       1.96395834  T        0
O        7.85998119      10.34601542       1.95458458  T        0
O       16.63218036      16.50491310       8.06152277  T        0
O       13.94458725      13.80295460       8.03564179  T        0
O       22.89783737      19.93846903       1.79106224  T        0
O       10.49299049       7.70692304       1.86123748  T        0
Al      10.87264244      15.23166051       0.90139991  T        0
Si      13.13912391      10.80262059       3.09595369  T        0
Si      13.58072453      21.38829366       7.09425106  T        0
Si      11.30037146      16.94323566       9.28908030  T        0
Si       9.07944111      19.26868775       4.93447627  T        0
Si      19.68249612      15.14478447       0.91605912  T        0
Si      17.52218628      19.51763990       3.11196710  T        0
Si      15.27227764      10.86205713       0.92872460  T        0
Si      10.93928985      12.99174073       3.09589185  T        0
Si       9.08730243      16.92705697       7.07769832  T        0
Si      13.52514475      19.17401875       9.29981066  T        0
Si      11.24339372      21.43190261       4.94747000  T        0
Al      15.29262457      19.67182912       0.88621078  T        0
Si      19.75545105      17.32778335       3.12589985  T        0
Si       9.11196616      11.20508116       1.33390969  T        0
Si      10.91960811      15.20649034       5.31953326  T        0
Si      13.09999767      19.63189906       3.14628881  T        0
Si      15.31461208      17.33459669       7.52815018  T        0
Si      21.53455493      19.14430181       1.32179341  T        0
Si      11.31819462       9.00098513       1.28682922  T        0
Si      15.33481081      19.57228689       5.31530384  T        0
Si      10.91686507      17.41269852       3.18578277  T        0
Si      13.12806840      15.13783094       7.52590880  T        0
Si      19.32289180      21.34978534       1.39593336  T        0
O       14.72852550      12.17733953      -2.57390539  T        0
O       15.78310366      18.44776626      -2.45706340  T        0
O       12.11971467      14.64253957      -2.47693124  T        0
O       18.36425814      15.69528059      -2.59110151  T        0
O       14.01419387      13.96301929      -0.70219503  T        0
O       16.51540237      16.46362918      -0.82712873  T        0
O       13.00617271      10.24150390      -1.91759121  T        0
O       10.09577289      12.87400206      -2.06420883  T        0
O       17.63574253      20.41820576      -2.09687831  T        0
O       20.29651489      17.44377286      -1.95890480  T        0
O       12.29418387      15.82625718      -0.02798532  T        0
O       15.70630628      12.09310528      -0.04994413  T        0
O       18.40765609      14.77900150      -0.05149184  T        0
O       14.65891483      18.17120139       0.00364332  T        0
O       12.21335343      12.19326431      -3.50632163  T        0
O       18.24959082      18.22763675      -3.45411990  T        0
O       16.52714697      13.96534782      -1.74490077  T        0
O       14.07190180      10.44522593      -4.41784193  T        0
O       22.76629576      16.36987954      -1.75502687  T        0
O       16.47980775      19.98831860      -4.48767630  T        0
O        7.59762425      13.86033538      -1.61628748  T        0
O       14.09501253      16.39277136      -1.91089362  T        0
O       10.49131349      14.03280096      -4.46806907  T        0
O       16.88757498      22.97506154      -1.58507262  T        0
O       20.00610042      16.45535157      -4.48007645  T        0
O       14.10980599       7.77521072      -1.76479840  T        0
Si      15.27305732      13.04390680      -1.31488276  T        0
Si      15.27237468      17.40179061      -1.32053452  T        0
Si      13.09359603      15.24325726      -1.32584343  T        0
Si      17.47912794      15.23585237      -1.30177266  T        0
Si      13.49342579       9.03918880      -0.92128200  T        0
Si      11.20732914      13.42681430      -3.11980513  T        0
Si      17.14943406      21.48555058      -0.92780422  T        0
Si      19.24566737      16.97837265      -3.12260406  T        0
Si       9.00875697      13.38242486      -0.92545763  T        0
Si      13.48147914      11.24823958      -3.11896252  T        0
Si      21.46302895      16.93016122      -0.92246465  T        0
Si      17.05084221      19.28633654      -3.11029523  T        0
H       14.73192765      10.71000053       4.85487458  F        0
H       13.68673605      23.15239550       8.63276462  F        0
H        9.66477675      16.80915558      10.95402362  F        0
H        7.34351903      20.83116256       4.61081863  F        0
H        9.66481601      23.15243056       4.61081458  F        0
H       19.78590388      13.44267559       2.53358811  F        0
H       17.05321204      10.71001402       2.53361564  F        0
H        7.34350493      16.80917637       8.63275504  F        0
H       13.68672539      20.83112809      10.95404502  F        0
H       19.78593016      15.76396550       4.85484922  F        0
H       20.83112530      23.15241223       1.48839475  F        0
H        7.34352333       9.66479174       1.48837704  F        0
H       17.05322892      15.76398032       7.58755865  F        0
H       14.73195660      13.44271185       7.58757947  F        0
H       23.15241204      20.83112542       1.48839475  F        0
H        9.66479163       7.34352337       1.48837704  F        0
H       13.68673308       9.66480596      -4.85513656  F        0
H       23.15240156      16.80916493      -2.53384338  F        0
H       16.80913871      20.83112323      -4.85512183  F        0
H        7.34352146      13.68671965      -2.53387758  F        0
H        9.66480591      13.68673318      -4.85513656  F        0
H       16.80916481      23.15240172      -2.53384338  F        0
H       20.83112308      16.80913882      -4.85512183  F        0
H       13.68671953       7.34352150      -2.53387758  F        0
Fe      13.70675460      13.79392310       1.59600853  T        0
Fe      13.68264105      16.99415249       1.42305282  T        1
O       14.31486945      15.41481367       2.15914497  T        2
