136
Lattice="19.123 0.0 0.0 0.0 14.277 0.0 0.0 0.0 7.5465" Properties=species:S:1:pos:R:3:move_mask:L:1:tags:I:1 i=128 E=-2603.9155142701 regions="_JSON [\"Active\"]" n_terminators=32 energy=-911.4489934013912 pbc="F F F"
O        6.06560635       1.10073565       1.43938095  T        0
O       15.81913414       8.49818694       5.90287220  T        0
O       13.06057824       1.10314444       1.43319081  T        0
O        3.30596378       8.50018851       5.90148261  T        0
O        6.06378858      13.17710102       1.43871593  T        0
O       15.82000344       5.77532598       5.90462578  T        0
O       13.06206716      13.17340651       1.43237947  T        0
O        3.30652073       5.77745126       5.89602246  T        0
O       12.95740833      13.10040919       5.91794108  T        0
O        3.54725562       5.80054921       1.83247415  T        0
O        6.17044067      13.09898978       5.92969745  T        0
O       15.57994028       5.79630487       1.84543770  T        0
O       12.95280901       1.17664984       5.91324039  T        0
O        3.54711318       8.48173936       1.84478564  T        0
O        6.17392391       1.17948142       5.92162265  T        0
O       15.57961391       8.47823769       1.84149720  T        0
O        7.27868789       3.33447481       2.44760479  T        0
O       17.14271981      10.85213816       6.09287822  T        0
O       11.84451005       3.33409113       2.44645951  T        0
O        1.98346997      10.85490334       6.09346013  T        0
O        7.27867805      10.94539075       2.44937456  T        0
O       17.14227523       3.42068987       6.09803856  T        0
O       11.84556310      10.94324445       2.44655207  T        0
O        1.97711145       3.42479653       6.06436572  T        0
O       11.88126912      10.74126890       5.08022499  T        0
O        2.00372335       3.62313874       1.37956889  T        0
O        7.24626630      10.74053635       5.08272735  T        0
O       17.12158450       3.61708345       1.38628494  T        0
O       11.88108669       3.53841485       5.08037797  T        0
O        2.00216024      10.65751119       1.38493433  T        0
O        7.24343042       3.54142640       5.08082668  T        0
O       17.12196915      10.65664523       1.38474336  T        0
O        6.65141030       3.25995107      -0.04985394  T        0
O       16.09869686      10.17277549       3.79676802  T        0
O       12.49533595       3.27593074      -0.04691603  T        0
O        3.02633753      10.17786955       3.79703726  T        0
O        6.63641498      11.00797476      -0.04523437  T        0
O       16.10107290       4.10007894       3.79945355  T        0
O       12.49289251      11.00202281      -0.04758015  T        0
O        3.04051613       4.10497730       3.78515675  T        0
O        4.66668367       3.36650157       1.79653377  T        0
O       14.45978108      10.83506723       5.79603596  T        0
O       14.46047708       3.36290436       1.82145348  T        0
O        4.66703091      10.83568278       5.79489792  T        0
O        4.66346607      10.91638823       1.81579873  T        0
O       14.45974236       3.43909259       5.79717007  T        0
O       14.46076702      10.91232535       1.81762604  T        0
O        4.66419242       3.43966301       5.79482836  T        0
O       11.50492281       8.52918377       3.54496166  T        0
O        7.62215347       8.53008465       3.54429200  T        0
O       11.50343196       5.74909666       3.54231969  T        0
O        7.62185957       5.75034412       3.54029979  T        0
O        9.56317069      10.36219722       3.74072328  T        0
O        9.56218533       3.91699957       3.74094411  T        0
O       13.70506799       7.13559520       5.05660520  T        0
O        5.42203832       7.13990177       5.05569075  T        0
O        5.87198904       7.14057000       2.08084240  T        0
O       13.25503336       7.13753576       2.08325172  T        0
O       14.61121387       7.13429299      -0.21992027  T        0
O        4.51486577       7.14956546      -0.22293475  T        0
Si       6.14133072       2.75294971       1.43230545  T        0
Si      15.85943606      10.06951447       5.41738583  T        0
Si      12.98848472       2.75559225       1.43647557  T        0
Si       3.26618796      10.07202401       5.41738426  T        0
Si       6.13702974      11.52455886       1.43748307  T        0
Si      15.86041947       4.20371343       5.42008048  T        0
Si      12.98852898      11.52098715       1.43544812  T        0
Si       3.26839308       4.20754925       5.40621375  T        0
Si      12.96957599      11.45121596       6.08408745  T        0
Si       3.31970814       4.21268115       2.17983078  T        0
Si       6.15753777      11.44900923       6.08730848  T        0
Si      15.81081726       4.20856763       2.19464700  T        0
Si      12.96833884       2.82537476       6.08372390  T        0
Si       3.31495561      10.06934626       2.19231226  T        0
Si       6.15634264       2.82881019       6.08466416  T        0
Si      15.81014739      10.06573007       2.19175014  T        0
Si      11.19105393      10.13565649       3.72090581  T        0
Si       7.93520865      10.13638052       3.72185859  T        0
Si      11.19036646       4.14232875       3.72058592  T        0
Si       7.93433706       4.14347117       3.72030626  T        0
Si      14.90857185       7.13663132       6.12140823  T        0
Si       4.21687520       7.13861129       6.11862471  T        0
Si       4.36035182       7.14305347       1.39157621  T        0
Si      14.76715202       7.13658951       1.39490952  T        0
Al      12.57662268       7.13896923       3.81284982  T        0
Al       6.54926611       7.14102254       3.81098929  T        0
O        6.69395308       3.21340035       7.59335399  T        0
O       12.42732238       3.20583688       7.59238719  T        0
O        6.69431007      11.06290438       7.59598554  T        0
O       12.42845983      11.06929784       7.59226690  T        0
O       14.19151774       7.13729332       7.60456773  T        0
O        4.93140788       7.13539719       7.60285871  T        0
O       15.71102490       8.43523121      -2.36822710  T        0
O        3.42620072       8.43874646      -2.38246258  T        0
O       15.71093895       5.83394907      -2.36775316  T        0
O        3.39365761       5.83706067      -2.35426024  T        0
O       13.26152089       7.13459159      -2.34635464  T        0
O        5.85919648       7.10597403      -2.34838876  T        0
Si      14.83333831       7.13473886      -1.83323623  T        0
Si       4.28796021       7.13282960      -1.83509187  T        0
H        5.61083456       0.52083913       2.07985367  F        0
H       13.50938118       0.51971906       2.07492992  F        0
H        5.61112307      13.75835362       2.07975607  F        0
H       13.50958039      13.75682243       2.07498241  F        0
H       13.51084140      13.75504172       5.44776650  F        0
H        5.62495998      13.75277707       5.44935724  F        0
H       13.50975252       0.52161770       5.44778410  F        0
H        5.62509051       0.52255101       5.44942550  F        0
H       17.28974254      11.12548174       7.01862795  F        0
H        1.83343022      11.12554006       7.01950242  F        0
H       17.28979000       3.14560285       7.02339196  F        0
H        1.81954193       3.15353441       6.98813474  F        0
H        1.83183800       3.14857954       0.53722786  F        0
H       17.29134854       3.14797220       0.53999843  F        0
H        1.83154049      11.12909684       0.54034962  F        0
H       17.29120144      11.12876736       0.54010345  F        0
H        6.35952436       2.97904956      -0.93427223  F        0
H       12.76076393       2.97683097      -0.93375646  F        0
H        6.36236324      11.29726414      -0.93275871  F        0
H       12.76174962      11.29928001      -0.93393629  F        0
H        6.35949513       2.97597070       8.47938261  F        0
H       12.76321398       2.97604733       8.47995589  F        0
H        6.35946036      11.30224636       8.48133548  F        0
H       12.76333233      11.30075111       8.47967776  F        0
H       14.61405599       7.13800201       8.47661577  F        0
H        4.50898861       7.14016697       8.47499567  F        0
H       15.75671561       9.37610020      -2.09181162  F        0
H        3.36611374       9.37433505      -2.09115109  F        0
H       15.75636517       4.89339805      -2.09021006  F        0
H        3.36064390       4.89097090      -2.09366187  F        0
H       12.88191441       7.13773895      -3.23957932  F        0
H        6.23944212       7.13797332      -3.24031999  F        0
Fe      11.24407522       7.13323526       1.59465197  T        0
Fe       7.88479191       7.13270384       1.59514289  T        1
O        9.56422054       7.89680578       0.74092822  T        2
O        9.56438621       6.37364019       0.73761793  T        3
