142
Lattice="19.123 0.0 0.0 0.0 14.277 0.0 0.0 0.0 7.5465" Properties=species:S:1:pos:R:3:move_mask:L:1:tags:I:1 i=128 E=-2603.9155142701 regions="_JSON [\"Active\"]" n_terminators=32 energy=-959.9346341173016 pbc="F F F"
O        6.00556696       1.12527123       1.42526747  T        0
O       15.64798496       8.40789191       5.82252782  T        0
O       13.04264284       1.10403588       1.44934352  T        0
O        3.60998977       8.43265157       5.73002935  T        0
O        6.01980738      13.12172587       1.46287719  T        0
O       15.66787444       5.73143256       5.84606422  T        0
O       13.06917839      13.13740722       1.46600251  T        0
O        3.37420400       5.74995466       5.75715891  T        0
O       13.24331789      13.16027637       6.17343835  T        0
O        3.28843135       5.78208975       1.67004563  T        0
O        6.02459489      13.18005824       6.11912104  T        0
O       15.62024935       5.80017805       1.77838379  T        0
O       12.99264358       1.09627232       6.04242943  T        0
O        3.24948503       8.49407615       1.54818152  T        0
O        6.28726492       1.22942489       5.60581422  T        0
O       15.62061554       8.49162366       1.73903025  T        0
O        7.24375063       3.29038040       2.52232418  T        0
O       17.26586322      10.51062327       6.25774621  T        0
O       11.87382314       3.35193957       2.45892373  T        0
O        2.14438293      10.67818340       6.20820343  T        0
O        7.23789831      10.90615059       2.50418287  T        0
O       17.11674113       3.45003555       6.10811726  T        0
O       11.94857502      10.75461463       2.15549693  T        0
O        2.00417103       3.41028638       6.06203784  T        0
O       12.11599872      10.94196315       5.00774481  T        0
O        2.01513241       3.38960699       1.46465778  T        0
O        7.30825354      10.95137113       5.16243373  T        0
O       17.13813773       3.58175168       1.40591198  T        0
O       11.83358723       3.37597518       5.10048200  T        0
O        1.99312702      10.88986392       1.47207828  T        0
O        7.29496891       3.70835170       5.20077917  T        0
O       17.22362991      10.63684991       1.38801169  T        0
O        6.72487888       3.19862863      -0.05545442  T        0
O       16.29631196      10.02879190       3.82212135  T        0
O       12.43354268       3.22574145      -0.05287030  T        0
O        2.99658986      10.06354545       3.73210947  T        0
O        6.67180895      11.03531152      -0.04442708  T        0
O       16.07133979       4.08469494       3.77301532  T        0
O       13.32290530      11.04169250      -0.18661018  T        0
O        3.07926523       4.05414129       3.74149922  T        0
O        4.70898770       3.49911370       1.73303430  T        0
O       14.65594208      10.91010642       5.79163488  T        0
O       14.46488736       3.37164234       1.76441886  T        0
O        4.71607403      10.86271324       5.58935316  T        0
O        4.67661635      10.77433069       1.78445432  T        0
O       14.43768086       3.35045461       5.75215595  T        0
O       14.61365242      10.98932066       2.04664171  T        0
O        4.67517930       3.40776453       5.80062178  T        0
O       11.44396265       8.31879615       3.87337086  T        0
O        7.58500805       8.56721517       3.88271982  T        0
O       11.58608005       5.68704750       3.74580924  T        0
O        7.62796913       5.74370863       3.69200933  T        0
O        9.53465352      10.15312722       3.87474635  T        0
O        9.58335147       3.90980712       3.73819076  T        0
O       13.45634457       7.03318453       5.10874847  T        0
O        5.78379021       6.83918913       5.33790492  T        0
O        5.37262126       7.22907704       2.49249457  T        0
O       13.40691474       7.15978455       2.43112462  T        0
O       14.13707852       7.09281741      -0.07579707  T        0
O        4.93174044       7.07446041      -0.05930474  T        0
Si       6.13170125       2.76980105       1.41423077  T        0
Si      15.94086960       9.98015912       5.42526917  T        0
Si      12.98867366       2.75722598       1.41941830  T        0
Si       3.34924148      10.00977547       5.32370952  T        0
Si       6.11463918      11.47037216       1.44097295  T        0
Si      15.81434747       4.16299713       5.38951879  T        0
Si      13.18787814      11.48063039       1.40123255  T        0
Si       3.27629169       4.16705664       5.34896657  T        0
Si      13.14868588      11.50072900       6.10709455  T        0
Si       3.28247344       4.20548788       2.12029870  T        0
Si       6.10676942      11.53294276       6.11436401  T        0
Si      15.81373446       4.21421716       2.15848176  T        0
Si      12.96030271       2.74986311       6.11281687  T        0
Si       3.24772241      10.03814812       2.11240422  T        0
Si       6.16401576       2.80819075       6.05308540  T        0
Si      15.92706662      10.04031044       2.22174543  T        0
Al      11.33608587      10.17544142       3.67251919  T        0
Si       7.89360110      10.20370161       3.82296780  T        0
Si      11.23113798       4.08527433       3.76357069  T        0
Si       7.97171089       4.14266164       3.69300939  T        0
Si      14.75397645       7.07220941       6.10901762  T        0
Si       4.33467760       7.02659224       6.11723434  T        0
Si       4.19198857       7.14457538       1.41010046  T        0
Si      14.73102701       7.14704032       1.45810280  T        0
Si      12.51158132       7.04438389       3.78347774  T        0
Al       6.53043421       7.15563597       3.71474762  T        0
O        6.31169478      13.07742246       9.65941670  T        0
O        3.27076531       5.86356571       9.74196521  T        0
O        3.65113723       8.46206705       9.66709083  T        0
O        7.58914539      10.75003198       9.92699839  T        0
O        2.38401204      10.73266364       8.83500553  T        0
O        6.70050466       3.14913698       7.57988167  T        0
O       12.42225244       3.20063199       7.59716774  T        0
O        2.75059509      10.31340842      11.40697530  T        0
O        6.38642290      11.17563397       7.67634685  T        0
O       12.61397803      10.97229317       7.57685942  T        0
O        4.87066074      10.80727570       9.84139754  T        0
O        1.84522446      13.08363185       7.51045355  T        0
O       -0.01992585      11.15752954       7.78167477  T        0
O        5.83997509       6.77776586       9.96334005  T        0
O       14.13159221       7.05623047       7.63394829  T        0
O        4.68374673       6.96062853       7.70270376  T        0
Si       6.25695959      11.47008057       9.28716034  T        0
Si       3.41278824      10.07287590       9.91880610  T        0
Si       1.58841495      11.44387072       7.57333419  T        0
Si       4.35121730       7.03612098       9.30181196  T        0
H        5.61083456       0.52083913       2.07985367  F        0
H       13.50938118       0.51971906       2.07492992  F        0
H        5.61112307      13.75835362       2.07975607  F        0
H       13.50958039      13.75682243       2.07498241  F        0
H       13.51084140      13.75504172       5.44776650  F        0
H        5.62495998      13.75277707       5.44935724  F        0
H       13.50975252       0.52161770       5.44778410  F        0
H        5.62509051       0.52255101       5.44942550  F        0
H       17.28974254      11.12548174       7.01862795  F        0
H       17.28979000       3.14560285       7.02339196  F        0
H        1.81954193       3.15353441       6.98813474  F        0
H        1.83183800       3.14857954       0.53722786  F        0
H       17.29134854       3.14797220       0.53999843  F        0
H        1.83154049      11.12909684       0.54034962  F        0
H       17.29120144      11.12876736       0.54010345  F        0
H        6.35952436       2.97904956      -0.93427223  F        0
H       12.76076393       2.97683097      -0.93375646  F        0
H        6.36236324      11.29726414      -0.93275871  F        0
H       12.76174962      11.29928001      -0.93393629  F        0
H       14.60982961       7.13673871      -0.92783774  F        0
H        4.51175007       7.13509558      -0.92932085  F        0
H        5.61112307      13.75835362       9.62625607  F        0
H        3.36661743       4.89904760       9.62155888  F        0
H        7.72879001      10.28772525      10.77169866  F        0
H        6.35949513       2.97597070       8.47938261  F        0
H       12.76321398       2.97604733       8.47995589  F        0
H        3.19647477      10.11404518      12.25127207  F        0
H       12.76333233      11.30075111       8.47967776  F        0
H        2.56257806      13.76129914       7.54737584  F        0
H       -0.96427299      11.34215683       7.54753770  F        0
H        6.24001829       7.13882896      10.76907540  F        0
H       14.61405599       7.13800201       8.47661577  F        0
Fe       9.57334755       8.04614726       4.69895929  T        0
Fe       7.56579699       5.87093017       5.98450648  T        1
O        8.67209733       7.48006498       6.50884634  T        2
O        9.54139275       6.38342254       5.97839550  T        3
