145
Lattice="20.102 0.0 0.0 0.0 19.731 0.0 0.0 0.0 13.253" Properties=species:S:1:pos:R:3:move_mask:L:1:tags:I:1 i=77 E=-3472.0240129048 regions="_JSON [\"Active\"]" n_terminators=32 energy=-985.8499138480264 pbc="F F F"
O       10.28139324       1.33188047       9.02207385  T        0
O       10.12126499       8.78419508       9.13782224  T        0
O        7.62871853       1.40150470      10.41335934  T        0
O        7.95876982       8.59871084      10.68798290  T        0
O       17.93923935       1.40477536       9.24575322  T        0
O        8.45547093       2.74292086       7.88406620  T        0
O        7.92966776       7.57487162       8.19314822  T        0
O        7.93134078      -0.09646927       7.96010248  T        0
O        7.88624865      10.24706901       8.62681439  T        0
O       11.75032044      10.34805685       5.32520001  T        0
O        6.62003672       1.10288394      12.84229490  T        0
O       16.57526324       0.80460871       7.07759903  T        0
O       13.82069508       1.01240525       2.09056020  T        0
O        4.93971699       1.64213817      10.82572624  T        0
O       15.20884368       1.29471373       9.23875014  T        0
O       16.40509460       2.57769288       5.13395439  T        0
O       14.26770895       9.43423620       5.74370812  T        0
O       14.20630330       1.30160793       5.87542376  T        0
O       16.15227861       0.02473027       4.58767126  T        0
O       12.30892649       7.68418892       5.20097297  T        0
O       11.79066648       2.53400454       5.89513715  T        0
O       12.18225910       9.00681169       7.47823669  T        0
O       12.33810738       0.60785431       7.60204881  T        0
O       12.58584804       8.30475676      10.01708658  T        0
O       12.69830346       1.10668380      10.16140294  T        0
O        8.11317492       9.17637466       3.71813736  T        0
O        8.45246104       0.80123971       4.49197503  T        0
O       11.94967207      10.80706854       9.50239984  T        0
O       14.46620721       2.80482118      11.23894848  T        0
O        9.75496724       3.10446753       4.07893210  T        0
O       10.17499615       7.39935998       3.63673196  T        0
O       12.59967514       3.14590381       3.13499791  T        0
O       12.55450371       6.55693036       2.73416453  T        0
O       11.31010566       5.26828455       4.75876222  T        0
O       13.61614304       3.28551268       0.65895007  T        0
O       15.25876554       3.11869043       2.76140599  T        0
O        5.94083225       6.85747160       6.44656364  T        0
O        5.91079738       3.73214400       7.49429524  T        0
O        8.06044827       5.18767231       6.98798342  T        0
O        8.47620216       7.29005843       5.62945964  T        0
O        7.45737926       3.10331705       5.41401547  T        0
O        7.73775868       6.57293915       3.11028290  T        0
O        7.37898519       2.58086195       2.85826959  T        0
O       17.88069268       3.55953354       3.09151975  T        0
O       16.13635298       5.04801419       4.47900623  T        0
Al       8.46407588       1.23812851       8.91391553  T        0
Si       8.49161211       8.80477847       9.15165780  T        0
Si       6.34436105       0.85731294      11.23752982  T        0
Si      16.59938446       0.62567205       8.69267801  T        0
Si      15.82225566       1.16907082       5.68526720  T        0
Si      12.66026752       9.11442425       5.93620258  T        0
Si      12.61470520       1.10646342       6.07508719  T        0
Si      11.69094995       9.25581800       9.02444999  T        0
Si      11.67031079       0.45159123       9.08277907  T        0
Si      14.27194694       1.32324365      10.57107491  T        0
Al      11.42465746       3.45450841       4.35321797  T        0
Si      11.62235608       6.74307241       4.05777348  T        0
Si      13.79806089       2.64652204       2.17520779  T        0
Si       7.51962354       6.75816223       6.86172907  T        0
Si       7.45911784       3.61488733       6.94418507  T        0
Si       8.60398175       7.63554560       4.00092181  T        0
Si       8.32595578       2.38626197       4.18902689  T        0
Si      16.40376516       3.55969281       3.83130171  T        0
O       13.81216545      -0.42906590      13.73821317  T        0
O       10.01455713      -1.22024272       3.80385689  T        0
O       12.45267343      -1.20033723       2.75575488  T        0
O       11.95282755      -2.66076744       4.91800070  T        0
O       12.02257879       0.01120875       5.04996605  T        0
O       13.45835337      -1.07145943       0.38682076  T        0
O        6.09455006      -0.71980140      10.80862998  T        0
O       16.67027421      -0.96025990       9.08735361  T        0
O       15.12154226      -1.25006380       2.50318653  T        0
O       13.99812743      -2.51158628      11.96916796  T        0
O        5.79557920      -1.23448112       6.67789679  T        0
O       16.24535622      -1.55595845      12.95816858  T        0
O       14.77713203       0.07144946      11.47674940  T        0
O        7.66488829      -2.75885795       7.93032481  T        0
O        8.16250125      -1.52294755       5.68877083  T        0
O        7.51549793      -1.32272683       3.05527339  T        0
O       17.67738764      -1.69967988       3.20641570  T        0
O       11.33856114      -1.08880218       9.43908015  T        0
O       15.72844737      -2.59845118       4.72122365  T        0
O        9.81794605      -3.27128328       9.46672931  T        0
O        7.36136492      -3.04034462      10.54523119  T        0
O       17.70230420      -3.42722093       9.45494741  T        0
O        7.90005208      -5.15506712       9.14351268  T        0
O        6.13019418      -2.32948811      12.83818882  T        0
O       16.35671735      -2.92074122       7.28535820  T        0
O        4.63511316      -3.00802983      10.76569896  T        0
O       15.01424124      -2.97861608       9.56606709  T        0
O       16.04357803      -5.02423821       5.59120074  T        0
O       13.94244599      -3.56961855       6.47367396  T        0
O       11.78610260      -5.08426276       5.94450315  T        0
O       11.60635827      -2.90087151       7.52225926  T        0
O       12.42171057      -3.44298940      10.00524237  T        0
O       14.23080668      -5.05226606      11.13019595  T        0
Si      11.60062088      -1.27367415       4.13462976  T        0
Si      13.72750878      -0.60131482       1.93590007  T        0
Si      14.69419112      -1.14351515      12.55371044  T        0
Si       7.39296432      -1.35823677       7.12011640  T        0
Si       8.50199050      -0.81484556       4.26376700  T        0
Si      16.16337523      -1.37093613       3.75277693  T        0
Si       8.21120515      -3.54590023       9.24943533  T        0
Si       6.06076144      -2.29342192      11.19882812  T        0
Si      16.43351331      -2.56252929       8.87140868  T        0
Si      15.51386036      -3.53280665       6.02787477  T        0
Si      12.33325403      -3.55355065       6.21615371  T        0
Si      11.29098483      -2.68863611       9.10205399  T        0
Si      13.92222214      -3.50390211      10.65627797  T        0
H        7.07153747       8.87866318      10.98534327  F        0
H       18.28958667       1.43588107      10.15436837  F        0
H        7.75914502      10.43742179       7.68600442  F        0
H       11.77602644      10.74421016       4.43990149  F        0
H        6.01931354       0.95312461      13.59787507  F        0
H        4.52133035       1.34033226      10.00226603  F        0
H       15.03932990       8.88569483       5.99268334  F        0
H       13.54926599       8.42132791      10.11787432  F        0
H        8.57917776       9.96978004       4.04186183  F        0
H       11.43576677      11.60834527       9.31342917  F        0
H       14.56690736       3.08960840      12.16034191  F        0
H       13.35632228       7.06085325       2.51220488  F        0
H       14.23421140       3.11626372      -0.07819396  F        0
H        5.18772305       6.48136951       6.94399129  F        0
H        5.18772305       3.38398261       6.94399129  F        0
H        6.78202892       6.52695113       2.93525138  F        0
H        6.78202891       3.33840099       2.93525138  F        0
H       18.37141861       2.74226592       2.89672377  F        0
H       16.04230866       5.86222357       3.96597143  F        0
H       13.51650675      -0.71595242      14.61047976  F        0
H       14.08297195      -0.95342037      -0.34490676  F        0
H        5.06295559      -0.97995304       7.26028496  F        0
H       16.97340650      -0.94135423      12.75613404  F        0
H        6.55301950      -1.44431996       3.13509397  F        0
H       18.17502403      -1.06794529       2.66186474  F        0
H       18.05303809      -3.38514467      10.35989921  F        0
H        8.48702655      -5.84645393       8.80063176  F        0
H        5.86807409      -3.11655948      13.33116226  F        0
H        4.26454119      -3.12925301       9.87579966  F        0
H       15.72702256      -5.84736437       5.99260349  F        0
H       12.17714150      -5.84801228       6.40017283  F        0
H       14.11111956      -5.86251936      10.59245558  F        0
Fe      10.68512140       2.96017562       7.76423188  T        0
Fe      10.25548512       5.48715631       6.51887695  T        1
O       10.48168800       5.00155533       8.43486425  T        2
O       11.73972803       4.67875068       7.72012830  T        3
