133
Lattice="20.102 0.0 0.0 0.0 19.731 0.0 0.0 0.0 13.253" Properties=species:S:1:pos:R:3:move_mask:L:1:tags:I:1 i=77 E=-3472.0240129048 regions="_JSON [\"Active\"]" n_terminators=34 energy=-879.7075549084398 pbc="F F F"
O       10.11356699       8.64507782       9.49411914  T        0
O        9.84113238      18.74057587       3.87959211  T        0
O       10.00602569      10.67279681       3.72756925  T        0
O        2.08153270      11.28898163       4.03846704  T        0
O        7.68252230       8.23302714      10.58449085  T        0
O       12.13796370      18.45407220       2.55274771  T        0
O       12.44736606      11.43668676       2.78354623  T        0
O        8.36803943       7.10796179       8.26873470  T        0
O       11.72376135      17.31727020       4.97630228  T        0
O       11.42227068      12.48072118       4.99003079  T        0
O        8.01483721       9.79345672       8.40530005  T        0
O       12.18864014      20.02509418       4.65037182  T        0
O       12.26453322       9.93119759       5.00844327  T        0
O        3.31039289      10.54442557       6.29787132  T        0
O        3.01541596       8.83164477       4.21820498  T        0
O        4.76980479      10.97207862       4.14036670  T        0
O        4.58635992      18.14662756       3.90682574  T        0
O        3.60461619      12.44530371       8.09564939  T        0
O        5.74095328      11.00927198       7.27009164  T        0
O        5.84960122      19.30760776       7.43703014  T        0
O       14.25408563       8.92566564       6.56103068  T        0
O        3.81463779       9.97467996       8.93302865  T        0
O        5.39502372       9.46462020       2.20072822  T        0
O        8.14020006      12.62080896       7.91342353  T        0
O        7.78468691      17.48175523       7.96313773  T        0
O       12.35815364       7.33229472       5.43412578  T        0
O        8.39851826      11.04425783       5.81942276  T        0
O        7.96692555      18.88917816       5.74488473  T        0
O       11.85480847       9.00854050       7.49504902  T        0
O        7.35125254      10.92437767       3.36484533  T        0
O        7.20586160      18.39484809       3.23028103  T        0
O       12.58399461       8.50335951      10.11428942  T        0
O        8.37537459       8.71888233       4.46240639  T        0
O       11.58343302      10.89570629       9.35694942  T        0
O       12.03659283      19.05887744       9.48794538  T        0
O        5.57041100      12.20003113       1.88014329  T        0
O        5.51805513      17.12838192       1.64795028  T        0
O       16.19971190      17.05404575       4.55002348  T        0
O       16.08147803      12.56471139       4.58362994  T        0
O        9.99105903      17.26569033       9.43692565  T        0
O        9.93118176      12.98766233       9.82360650  T        0
O       10.15056948       6.73423480       4.00494792  T        0
O        7.70384535      17.03615369      10.62523016  T        0
O        7.27457546      13.41483594      10.40739705  T        0
O       12.42406180       6.89696386       2.75359746  T        0
O        8.53394672      15.08948699       8.88219733  T        0
O       12.06442015       4.87442662       4.60757064  T        0
O       16.59370620      12.52470419       7.21556971  T        0
O       16.60214724      17.11665515       7.21229592  T        0
O        5.51350202      14.61511213       0.74444929  T        0
O       15.86586136      14.81342500       5.95295104  T        0
O        3.81832395      16.42109271      -0.35444216  T        0
O        5.97825463       6.88845605       7.32792196  T        0
O        3.76863149      12.71214809      -0.08239204  T        0
O       14.04867553      12.90271642       6.38520288  T        0
O       14.13379651      16.87102148       6.22253471  T        0
O        7.51245433       4.63172054       7.49035703  T        0
O       12.13874250      15.04756844       5.92187759  T        0
O        8.09928483       6.41338952       5.67605264  T        0
O       11.24995847      12.86912815       7.54023070  T        0
O       11.90845443      17.14759318       7.62424996  T        0
O        7.75334084       6.51435197       3.00768806  T        0
O       12.62694616      13.39262038       9.66539263  T        0
O       12.36296863      16.52591028      10.24127502  T        0
Si       8.51210604       8.47988331       9.17462359  T        0
Si      11.46470285      18.69238023       4.03069442  T        0
Si      11.54459130      11.09402033       4.11282546  T        0
Si       3.31666981      10.39386296       4.67137678  T        0
Si       4.17226288      10.95792044       7.64236457  T        0
Al       7.44272945      11.03622867       7.37876822  T        0
Si       7.45558391      18.94543520       7.29823724  T        0
Si      12.67796296       8.78865270       6.10838534  T        0
Si       8.51845328      10.33079634       4.33270056  T        0
Si       8.26547209      19.19792143       4.17332762  T        0
Si      11.55335762       9.26470167       9.09375157  T        0
Si       5.78438773      10.91916927       2.87304403  T        0
Si       5.64902652      18.40346625       2.66643239  T        0
Si       8.48190856      16.68938697       9.22002501  T        0
Si       8.45719015      13.49472941       9.26769867  T        0
Si      11.74769912       6.44029584       4.19537167  T        0
Si       5.31131041      16.18845672       0.32211311  T        0
Si       5.29658085      13.00688485       0.48439325  T        0
Si      15.61255782      13.17407546       6.04975044  T        0
Si      15.71913579      16.43363527       5.99921817  T        0
Si       7.49942882       6.25749441       7.19094985  T        0
Al      12.39365545      13.28946053       6.24001548  T        0
Si      12.55672138      16.59439485       6.26266864  T        0
Si       8.59136318       7.11007346       4.29393562  T        0
Si      11.34889905      12.49293717       9.14760447  T        0
Si      11.57381717      17.50559661       9.20167860  T        0
O        8.36832094      20.16482128       7.94674754  T        0
O        5.22075323      19.82397764       1.94517676  T        0
O        8.04180584      20.76532953       3.74050084  T        0
O        6.42200047      16.51260376      -0.84939149  T        0
O        6.36634762      12.33539715      -0.57300090  T        0
H        1.81269882      11.30123319       3.09859993  F        0
H        7.07153747       8.87866318      10.98534327  F        0
H       13.03074803      18.74401529       2.26762503  F        0
H       13.03074804      10.85204106       2.26762503  F        0
H       12.34310542      20.30287261       5.56688324  F        0
H        3.60112680       8.06005012       4.30646574  F        0
H        4.05829635      18.79668859       4.41071282  F        0
H        4.03182275      12.92715973       8.82439874  F        0
H        5.06295559      18.75104696       7.26028496  F        0
H       15.03932990       8.88569483       5.99268334  F        0
H        4.11249823       9.08086468       9.18193973  F        0
H        5.72719027       9.20254625       1.33756862  F        0
H       13.54926599       8.42132791      10.11787432  F        0
H       11.52310955      19.83515307       9.21116341  F        0
H       15.87290964      17.87210703       4.12309272  F        0
H       15.87290964      11.72394929       4.12309273  F        0
H        6.74596320      16.92620537      10.74076342  F        0
H        6.74596321      12.66985099      10.74076342  F        0
H       13.35632228       7.06085325       2.51220488  F        0
H       11.61525895       4.01919395       4.45233654  F        0
H       16.41758072      12.40218664       8.16986141  F        0
H       16.41758072      17.19386972       8.16986141  F        0
H        2.98936131      16.34896307       0.14601228  F        0
H        5.18772305       6.48136951       6.94399129  F        0
H        2.98936131      13.24709329       0.14601228  F        0
H        7.92514400       4.01763560       6.85279547  F        0
H        6.78202892       6.52695113       2.93525138  F        0
H       13.32025657      13.20375310      10.31771692  F        0
H       13.32025658      16.39230324      10.31771692  F        0
H        8.32625906      20.60985804       8.81306681  F        0
H        5.72719026      20.39380587       1.33756863  F        0
H        8.66651872      21.47399316       3.93953912  F        0
H        6.36643797      17.19386972      -1.54340896  F        0
H        6.36643797      12.40218664      -1.54340896  F        0
Fe      10.48915653      15.53830529       4.68237169  T        0
Fe       9.52453482      12.75185080       6.24820026  T        1
O        8.93783345      14.51096897       5.45774391  T        2
O        9.06864436      14.50843125       3.98328090  T        3
