147
Lattice="24.397 0.0 0.0 0.0 24.397 0.0 0.0 0.0 24.397" Properties=species:S:1:pos:R:3:move_mask:L:1:tags:I:1 i=41 E=-6943.8331748197 regions="_JSON [\"Active\"]" n_terminators=24 energy=-1044.5930662430517 pbc="F F F"
O        9.46481477      14.59285842       0.05918380  T        0
O       12.24586768       9.55562455       2.59220783  T        0
O       14.83072615      20.93147877       6.12874066  T        0
O       12.24321523      15.76921448       8.78191300  T        0
O        9.66640572      18.31611515       3.86875660  T        0
O       15.62368807       9.46119753       6.19084535  T        0
O       18.38314606      14.87034625       8.85728667  T        0
O       21.08932695      12.20411581       3.47169470  T        0
O       21.03491304      15.62840550      -0.07768395  T        0
O       18.32482014      21.06489565       2.63936793  T        0
O       14.64196345       9.44692098      -0.09862544  T        0
O        9.49583983      12.33238818       2.52247937  T        0
O       21.08430233      14.83328571       6.10670281  T        0
O       15.66657255      12.18785999       8.86886553  T        0
O       18.45676949       9.43542166       3.40309738  T        0
O        9.60691757      15.94775293       6.08505959  T        0
O       14.80523659      18.31433948       8.73052837  T        0
O       12.17869973      20.91248635       3.58738345  T        0
O       15.65163486      21.04539896      -0.03416905  T        0
O       21.09736843      18.26915131       2.60975691  T        0
O       11.45171439      14.20200876       2.15467174  T        0
O       13.97152699      11.49328057       1.88262816  T        0
O       13.07261426      20.26360467       8.05841729  T        0
O       10.26988105      17.49362205       8.17434856  T        0
O       10.21475069      20.42409381       5.40404501  T        0
O       19.25226874      16.48373106       1.76715086  T        0
O       16.52291328      19.23610953       1.77896123  T        0
O       10.24214576      10.30275614       0.98173914  T        0
O       11.46343604      16.32872897       4.18305881  T        0
O       14.10385350      19.17078005       4.26438905  T        0
O       14.09200204      16.45373536       6.95660255  T        0
O       19.26071064      14.00698921       4.29001785  T        0
O       16.62881154      11.18681922       4.38440417  T        0
O       16.56444251      13.99082297       7.06419238  T        0
O       11.96978820      12.02573225       3.57270910  T        0
O       12.31473155      21.85789861       6.08603886  T        0
O       12.29119894      18.30101848       9.65479879  T        0
O        8.67925779      18.45303579       6.31717032  T        0
O       18.49709789      18.44982266       3.34293952  T        0
O       12.06732452       8.72250308       0.04696916  T        0
O        8.60426080      12.08384231      -0.01708928  T        0
O       12.09256653      14.87984351       6.27087861  T        0
O       12.13009183      18.38975411       2.74196645  T        0
O       15.71413232      18.40571658       6.21252079  T        0
O       18.49396442      15.59899936       6.24758224  T        0
O       18.48033157      12.05095025       2.72509333  T        0
O       14.96263885      12.07962635       6.24149610  T        0
O       10.27181845      16.72215873       1.82614704  T        0
O       14.00773320      10.48626305       4.36506130  T        0
O       14.13193813      22.75799880       7.86413782  T        0
O       10.54599944      16.50459457      10.67030336  T        0
O        7.75300224      20.00551242       4.31412297  T        0
O       10.54108061      22.85649148       4.30298923  T        0
O       20.07536976      13.93162688       1.72616206  T        0
O       16.62008534      20.05633811       4.34050178  T        0
O       16.63004044      10.35731843       1.82124535  T        0
O       10.34664771      13.90712634       4.52279159  T        0
O        7.79090423      16.41761824       7.86724386  T        0
O       14.12592306      20.06138618      10.55486679  T        0
O       13.95869065      20.04625734       1.73584020  T        0
O       20.08810068      16.54876655       4.33427888  T        0
O        7.71815558      10.44691167       1.93627537  T        0
O       16.61058079      16.54424980       7.87737735  T        0
O       13.99281995      13.94244651       7.87570502  T        0
O       10.39799127       7.78047999       1.96007918  T        0
Al      10.75677627      15.33039405       0.89233980  T        0
Si      13.04797102      10.88312117       3.10908377  T        0
Si      13.57678321      21.45146343       7.04378905  T        0
Si      11.33410707      17.02298553       9.32763952  T        0
Si       9.07708949      19.32959551       4.99601136  T        0
Si      19.70100191      15.23340984       0.81121242  T        0
Si      17.49929650      19.69055438       3.01446973  T        0
Al      15.27249331      10.71780828       0.85495874  T        0
Si      10.79052755      13.07769585       3.16517442  T        0
Si       9.08461851      17.09778695       7.13164022  T        0
Si      13.56374506      19.24594184       9.24844204  T        0
Si      11.31183828      21.51279715       4.84817666  T        0
Si      15.27529233      19.68667694       0.82191485  T        0
Si      19.73009927      17.43745717       3.01049835  T        0
Si       8.99972866      11.28882107       1.34344685  T        0
Si      10.83369896      15.24070751       5.31582064  T        0
Si      13.10340888      19.66271294       3.07365300  T        0
Si      15.31465439      17.43370109       7.45194293  T        0
Si      19.73344799      15.23921501       5.24979086  T        0
Si      17.53590486      10.76174550       3.07079362  T        0
Si      15.31070455      13.04095062       7.50595304  T        0
Si      11.23391389       9.07554972       1.38958951  T        0
Si      15.32323230      10.80705877       5.28407466  T        0
Si      19.72466265      13.03612439       3.05649584  T        0
Si      17.52326831      15.24209964       7.50267427  T        0
Si      15.32658553      19.65105422       5.24204697  T        0
Si      10.81461098      17.49719277       3.09705004  T        0
Si      13.11692710      15.25974196       7.49744715  T        0
O       14.68444265      12.14860120      -2.59999916  T        0
O       15.66186403      18.31492992      -2.78123439  T        0
O       12.17805394      14.68407558      -2.56369199  T        0
O       18.34287345      15.64510013      -2.78208159  T        0
O       14.09396141      14.09094054      -0.79714392  T        0
O       16.52286917      16.49806457      -0.96652145  T        0
O       12.98561575      10.06485611      -2.08246523  T        0
O       10.10046891      13.00534767      -2.01316977  T        0
O       12.15558748      15.71154965      -0.06827106  T        0
O       15.58785297      12.23503105      -0.04967360  T        0
O       18.44144595      14.87355089      -0.17364394  T        0
O       14.92448699      18.43859349      -0.16994965  T        0
O       12.15843227      12.17611829      -3.44451514  T        0
O       16.56085639      13.96401308      -1.86732021  T        0
O       14.00379190      10.52406322      -4.52938764  T        0
O        7.57918643      13.94959120      -1.63580319  T        0
O       13.98468580      16.54443171      -1.83441413  T        0
O       10.49318455      14.03532584      -4.47830771  T        0
O       13.61264505       7.46253867      -1.58151748  T        0
Si      15.27558384      13.07660077      -1.41189909  T        0
Si      15.27699439      17.45885148      -1.42669874  T        0
Si      13.04776141      15.30242041      -1.32390461  T        0
Si      17.48241755      15.25781910      -1.43259131  T        0
Si      13.35935640       8.94701353      -0.92545734  T        0
Si      11.21405864      13.47080455      -3.11220116  T        0
Si       8.95252796      13.42519628      -0.90341709  T        0
Si      13.43759346      11.21181946      -3.14798555  T        0
H       16.48559112       9.33840607       6.62628668  F        0
H       18.82464116      14.01032609       8.95915608  F        0
H       21.15750258      11.67126816       4.28721909  F        0
H       21.15749781      16.48550533      -0.52720743  F        0
H       18.82463422      21.15752504       1.81198193  F        0
H       21.15748967      14.01033142       6.62630180  F        0
H       16.48560162      11.67124930       8.95913012  F        0
H       18.82463962       9.33839646       4.28720704  F        0
H       16.48550522      21.15749796      -0.52720744  F        0
H       21.15752488      18.82463433       1.81198193  F        0
H       13.68673605      23.15239550       8.63276462  F        0
H        9.66477675      16.80915558      10.95402362  F        0
H        7.34351903      20.83116256       4.61081863  F        0
H        9.66481601      23.15243056       4.61081458  F        0
H        7.34350493      16.80917637       8.63275504  F        0
H       13.68672539      20.83112809      10.95404502  F        0
H        7.34352333       9.66479174       1.48837704  F        0
H        9.66479163       7.34352337       1.48837704  F        0
H       16.48557283      18.82464187      -2.86023677  F        0
H       18.82464171      16.48557294      -2.86023676  F        0
H       13.68673308       9.66480596      -4.85513656  F        0
H        7.34352146      13.68671965      -2.53387758  F        0
H        9.66480591      13.68673318      -4.85513656  F        0
H       13.68671953       7.34352150      -2.53387758  F        0
Fe      14.49155235      13.45371073       1.31989308  T        0
Fe      12.95917702      15.40656764       3.11571042  T        1
O       14.54662240      14.82979006       2.53494250  T        2
