136
Lattice="20.102 0.0 0.0 0.0 19.731 0.0 0.0 0.0 13.253" Properties=species:S:1:pos:R:3:move_mask:L:1:tags:I:1 i=77 E=-3472.0240129048 regions="_JSON [\"Active\"]" n_terminators=34 energy=-910.8668337836846 pbc="F F F"
O       10.13139100       8.63868197       9.34906083  T        0
O        9.93122691      18.66899986       4.05850796  T        0
O       10.10068136      10.85056202       4.08939783  T        0
O        2.10016330      11.28634964       4.03234333  T        0
O        7.92807287       8.49584248      10.73835121  T        0
O       12.11524422      18.53766563       2.54256784  T        0
O       12.51155256      11.21935765       2.79302276  T        0
O        8.23579110       7.00180218       8.49202536  T        0
O       12.05755793      17.45851138       5.02426440  T        0
O       11.68972174      12.50604289       5.09194603  T        0
O        7.90212538       9.64545892       8.30430634  T        0
O       12.15555670      20.14852274       4.62835438  T        0
O       12.42701867       9.93227130       5.06667682  T        0
O        3.55083274      10.56747450       6.16231058  T        0
O       16.83906613       8.67191103       7.16633941  T        0
O       13.60798552      11.08558784       0.46055582  T        0
O        3.07229601       8.84991277       4.11153281  T        0
O       13.76697016       8.93531365       2.12987091  T        0
O        4.77263132      10.96150277       3.80764276  T        0
O        4.91562244      18.38250718       4.25298358  T        0
O       15.19760199      11.09991536       2.65072274  T        0
O        3.76997604      12.46058251       8.00774844  T        0
O       16.29163782       7.36789829       5.00992455  T        0
O        5.88857073      10.97210889       7.28700272  T        0
O       14.29246978       8.56246295       6.35486727  T        0
O        3.88697938       9.97479155       8.85662248  T        0
O        5.44916743      10.12662051       1.32095082  T        0
O       16.02085559       9.98677652       4.92161487  T        0
O        8.16489431      12.28610658       7.96672406  T        0
O       12.03859962       7.34837595       5.58105142  T        0
O        8.25574820      10.86728352       5.92125499  T        0
O        8.10896132      19.40780084       5.92987648  T        0
O       12.01158330       9.15743552       7.54990145  T        0
O        7.30445295      11.08644484       3.13236026  T        0
O        7.34678618      18.33503635       3.45587611  T        0
O       12.58077262       8.42786899      10.12721328  T        0
O       17.76598106      11.40171492       3.40824632  T        0
O        8.26792951       8.57753798       4.07999550  T        0
O       11.59139530      10.86406044       9.54582271  T        0
O        5.50820514      12.63026366       1.81019184  T        0
O        5.51227626      17.29590643       1.86716671  T        0
O       15.96050140      17.02522101       4.59697120  T        0
O       15.87060327      12.63008530       4.74898751  T        0
O        9.85388574      12.92248925       9.86216509  T        0
O       10.07969947       6.58108562       3.90872220  T        0
O        7.17453005      13.40337950      10.26675384  T        0
O       12.56564540       6.73778407       3.02849877  T        0
O        8.48284343      14.81129674       8.43294477  T        0
O       11.92280374       4.84358652       4.86845731  T        0
O       16.66693343      12.62829676       7.26054451  T        0
O       13.52231697       6.74344413       0.58350799  T        0
O       16.61909798      17.22843189       7.21566984  T        0
O       15.23385756       6.77907639       2.63820224  T        0
O        5.49375482      14.96859613       0.63479610  T        0
O       15.81487190      14.91196918       6.07979728  T        0
O        3.75584188      16.85772563      -0.16702219  T        0
O        5.98365060       6.94202328       7.24727307  T        0
O        3.82835852      13.05166394      -0.30482783  T        0
O       14.06229464      13.00014895       6.72183481  T        0
O       14.07347553      16.88988759       6.61210649  T        0
O        7.41346688       4.63497624       7.41105191  T        0
O       12.06959605      15.13471739       6.37085723  T        0
O        8.33935309       6.61082065       5.87787085  T        0
O       11.25307937      12.68617376       7.62124408  T        0
O       11.64191424      17.55429957       7.58547841  T        0
O        7.52804883       6.09443225       3.38199754  T        0
O       12.44609004      13.41728864       9.94350068  T        0
O       17.83788125       6.32346762       3.04593943  T        0
O       16.04178347       4.86750530       4.40411011  T        0
Si       8.53020271       8.43472485       9.21067812  T        0
Si      11.56478146      18.69665735       4.09015099  T        0
Si      11.70485297      11.10984578       4.19798078  T        0
Si       3.41132409      10.41566196       4.52477842  T        0
Si      13.79688946      10.55931629       2.00346577  T        0
Si       4.27079112      10.95248271       7.58028640  T        0
Si      15.84827574       8.67461893       5.86010859  T        0
Si       7.48557568      10.89796233       7.37574623  T        0
Si      12.69215147       8.73342126       6.13030923  T        0
Al       8.42407745      10.28649935       4.17767820  T        0
Si       8.41479113      19.23186939       4.31357193  T        0
Si      11.60289343       9.27310713       9.12446294  T        0
Si       5.80687209      11.18840734       2.54178319  T        0
Si       5.81684066      18.53649450       2.88354376  T        0
Si      16.21171033      11.26681060       3.93074762  T        0
Si       8.41919904      13.36379899       9.19515405  T        0
Si      11.64130949       6.37075726       4.32723190  T        0
Si      13.78163308       7.30355388       2.10985580  T        0
Si       5.27294930      16.57101825       0.43394926  T        0
Si       5.31419823      13.36876903       0.35978549  T        0
Si      15.57255572      13.30308022       6.21748848  T        0
Si      15.59452250      16.52693244       6.12236110  T        0
Si       7.49943366       6.27094946       7.22397214  T        0
Al      12.42571675      13.44911977       6.43268920  T        0
Si      12.45259307      16.69953314       6.41405222  T        0
Si       8.55090856       7.01660277       4.30421972  T        0
Si      11.31475939      12.44338110       9.26139854  T        0
Si      16.34844895       6.33935217       3.75647539  T        0
O        5.44895550      19.98692645       2.18265469  T        0
O        8.20282957      20.70169583       3.60912263  T        0
O        6.35300605      17.29067161      -0.57866609  T        0
O        6.46197114      12.92694719      -0.73043146  T        0
H        1.81269882      11.30123319       3.09859993  F        0
H        7.07153747       8.87866318      10.98534327  F        0
H       13.03074803      18.74401529       2.26762503  F        0
H       12.34310542      20.30287261       5.56688324  F        0
H       16.63692148       9.14969546       7.98396390  F        0
H       14.08297195      10.81847671      -0.34490677  F        0
H        3.60112680       8.06005012       4.30646574  F        0
H        4.05829635      18.79668859       4.41071282  F        0
H        4.03182275      12.92715973       8.82439874  F        0
H        4.11249823       9.08086468       9.18193973  F        0
H        5.72719027       9.20254625       1.33756862  F        0
H        7.89439933      18.84188441       6.69694329  F        0
H       13.54926599       8.42132791      10.11787432  F        0
H       18.17502404      10.93300163       2.66186473  F        0
H       15.87290964      17.87210703       4.12309272  F        0
H        6.74596321      12.66985099      10.74076342  F        0
H        8.48702655      15.71151028       8.80063176  F        0
H       11.61525895       4.01919395       4.45233654  F        0
H       16.41758072      12.40218664       8.16986141  F        0
H       14.23421140       6.74908840      -0.07819396  F        0
H       16.41758072      17.19386972       8.16986141  F        0
H        2.98936131      16.34896307       0.14601228  F        0
H        5.18772305       6.48136951       6.94399129  F        0
H        2.98936131      13.24709329       0.14601228  F        0
H        7.92514400       4.01763560       6.85279547  F        0
H       11.48335559      17.28200580       8.50556349  F        0
H        6.78202892       6.52695113       2.93525138  F        0
H       13.32025657      13.20375310      10.31771692  F        0
H       18.37141860       7.12308619       2.89672377  F        0
H       16.04230867       4.00312851       3.96597142  F        0
H        5.72719026      20.39380587       1.33756863  F        0
H        8.66651872      21.47399316       3.93953912  F        0
H        6.36643797      17.19386972      -1.54340896  F        0
H        6.36643797      12.40218664      -1.54340896  F        0
Fe       9.95297583      11.95501939       6.18706585  T        1
