138
Lattice="19.123 0.0 0.0 0.0 14.277 0.0 0.0 0.0 7.5465" Properties=species:S:1:pos:R:3:move_mask:L:1:tags:I:1 i=128 E=-2603.9155142701 regions="_JSON [\"Active\"]" n_terminators=34 energy=-920.475830209069 pbc="F F F"
O       15.85394232       8.66410889       6.11508991  T        0
O       12.84326613       1.22975819       2.01089930  T        0
O        3.47732767       8.45397012       5.89802289  T        0
O        6.27878605      13.05439330       2.02721623  T        0
O       15.91713171       5.99967771       5.79984480  T        0
O        3.22098468       5.81738199       5.74393034  T        0
O        3.19810700       5.84417491       1.88656770  T        0
O        6.15710493      13.11491876       5.96706911  T        0
O       15.68183944       5.80447104       1.74670737  T        0
O       13.87914099       1.36064722       5.76339089  T        0
O        3.43500955       8.47491295       1.70988545  T        0
O       15.61007581       8.42375288       2.23531304  T        0
O        7.39140466       3.17125543       2.57237609  T        0
O       11.87387180       3.70447835       2.29511313  T        0
O        1.98300568      10.70698792       6.14487578  T        0
O        7.30837518      10.68671670       2.33722130  T        0
O       17.15268495       3.59005057       6.16084483  T        0
O       12.17412697      11.01669558       2.83597187  T        0
O       11.66481378      10.59736065       5.35999480  T        0
O        7.20811403      10.75721695       5.02283720  T        0
O       17.05514562       3.51987000       1.38768786  T        0
O       12.02121459       3.20586054       4.97500884  T        0
O        2.09809182      10.78173860       1.36755322  T        0
O        7.44584167       3.63900588       5.26667134  T        0
O       12.71284959       2.97097542      -0.09090306  T        0
O        3.05221155      10.10278788       3.80334323  T        0
O        6.47212474      11.38072469      -0.10534499  T        0
O       16.07912855       4.17163255       3.83958841  T        0
O       14.47190231       3.41144101       1.86245325  T        0
O        4.64951801      10.87599783       5.79375271  T        0
O        4.68930405      10.85840475       1.82629477  T        0
O       14.43423079       3.85323428       5.97479803  T        0
O       11.31460161       8.49018291       3.66380215  T        0
O       17.30008910       1.16518646       0.01540687  T        0
O        7.82773368       8.43349205       3.69636666  T        0
O        1.80332937      13.13484010       0.00596018  T        0
O       11.57454276       5.68967270       3.91391315  T        0
O        7.82814353       5.74109167       3.59436453  T        0
O        9.57592336      10.43846635       3.70324268  T        0
O       -0.03582703      11.19256748      -0.28831486  T        0
O        9.64559975       3.81313954       3.82117570  T        0
O       13.73106925       7.38881471       5.04130463  T        0
O        5.60996432       6.99609623       5.12471891  T        0
O        5.63618859       7.04064008       2.26142975  T        0
O       13.32483169       6.94197162       2.20399304  T        0
O       14.57104996       7.41614140      -0.09405962  T        0
O        4.57235209       6.94881994      -0.16061063  T        0
Si      13.02528099       2.77877181       1.50106223  T        0
Si       3.30123231      10.01383671       5.42720695  T        0
Si       6.15427426      11.49173415       1.50139388  T        0
Si      15.89764415       4.39748241       5.46544926  T        0
Si       6.14626848      11.46333347       6.07886880  T        0
Si      15.84865019       4.24137575       2.22697057  T        0
Si      13.18419421       2.81912137       6.08900592  T        0
Si       3.31288619      10.03247148       2.18479911  T        0
Si      11.19482323      10.13682775       3.84754954  T        0
Si      17.56005718       2.80619115      -0.02404920  T        0
Si       7.95930525      10.10197764       3.72096357  T        0
Si       1.56128656      11.48747506      -0.02821331  T        0
Si      11.24749691       4.08794264       3.84608996  T        0
Si       8.00611624       4.11099511       3.78684496  T        0
Si      14.92598671       7.29009894       6.12096641  T        0
Si       4.31136420       7.03188838       6.07842189  T        0
Si       4.24424274       7.05947563       1.45129574  T        0
Si      14.81424424       7.17634133       1.50868553  T        0
Al      12.54087355       7.19935735       3.84014379  T        0
Al       6.58470831       7.05160266       3.71151621  T        0
O       19.15638980       3.08973008      -0.29082042  T        0
O       12.43712670       2.89448691       7.55772476  T        0
O        6.68896113      11.06333124       7.58842878  T        0
O       14.20537010       7.08914392       7.59680043  T        0
O        4.90625161       6.90042275       7.62083932  T        0
O       15.73061275       8.42470173      -2.31851486  T        0
O        3.49620107       8.46473773      -2.09756402  T        0
O       15.50884119       5.81293538      -2.04138904  T        0
O        3.19734195       5.84562568      -2.22049476  T        0
O        6.29110934      13.05566442      -2.23786856  T        0
O       12.80157218       1.19355020      -2.12858899  T        0
O        2.34760379      10.78380662      -1.29052708  T        0
O        7.54324677      10.84151345      -5.27469491  T        0
O       16.74050202       3.53008623      -1.26095691  T        0
O        7.48419242      10.74169166      -2.54496246  T        0
O       11.54979060       3.54996488      -2.37894126  T        0
O        2.82008108      10.40771930      -3.85492508  T        0
O       16.33823172       3.96440297      -3.84170582  T        0
O        4.85950395      10.75370991      -2.13012187  T        0
O       14.25496450       3.47651195      -2.22024391  T        0
O        7.30063284       8.47968896      -3.97377998  T        0
O        7.78865396       5.87870085      -3.89351804  T        0
O        9.61548210       9.74227214      -3.96863129  T        0
O       13.22121238       7.26432704      -2.32973138  T        0
O        5.63520502       6.92677266      -2.60035088  T        0
O        5.70353778       6.73915121      -5.32069822  T        0
Si       3.38518917      10.08170209      -2.33582913  T        0
Si      15.71628163       4.21028836      -2.33699432  T        0
Si       6.26336598      11.48120775      -1.73510262  T        0
Si      12.86127253       2.79604762      -1.73347682  T        0
Si       7.98546571       9.97447521      -3.92705633  T        0
Si      14.75896504       7.23114778      -1.71888322  T        0
Si       4.23676805       7.04258365      -1.75124156  T        0
Si       6.58163033       7.00850331      -3.93830149  T        0
H       15.75671561       9.37610020       5.45468838  F        0
H       13.50938118       0.51971906       2.07492992  F        0
H        5.61112307      13.75835362       2.07975607  F        0
H        3.36064390       4.89097090       5.45283813  F        0
H        3.36661743       4.89904760       2.07505888  F        0
H        5.62495998      13.75277707       5.44935724  F        0
H       13.50975252       0.52161770       5.44778410  F        0
H       15.75699573       9.38061947       2.07980242  F        0
H        6.67730558       3.15591219       1.89974949  F        0
H        1.83343022      11.12554006       7.01950242  F        0
H       17.28979000       3.14560285       7.02339196  F        0
H       12.44599272      11.12072140       1.90005270  F        0
H       12.44514575      11.11938908       5.63275925  F        0
H        6.67493943       3.16061899       5.63310767  F        0
H       16.56036088       0.51548555      -0.00076213  F        0
H        2.56257806      13.76129914       0.00087584  F        0
H       -0.96427299      11.34215683       0.00103770  F        0
H       20.08726577       2.93486642      -0.00052988  F        0
H       12.76321398       2.97604733       8.47995589  F        0
H        6.35946036      11.30224636       8.48133548  F        0
H       14.61405599       7.13800201       8.47661577  F        0
H        4.50898861       7.14016697       8.47499567  F        0
H       15.75671561       9.37610020      -2.09181162  F        0
H        3.36064390       4.89097090      -2.09366187  F        0
H        5.62495998      13.75277707      -2.09714276  F        0
H       13.50975252       0.52161770      -2.09871590  F        0
H        6.67686405      11.12256578      -5.64493030  F        0
H       11.39412799       3.98861071      -3.24188863  F        0
H        3.19736723      10.11759060      -4.70766930  F        0
H       15.92661844       4.15901570      -4.70770176  F        0
H        7.80677964       4.90364681      -3.78479629  F        0
H       10.52611047      10.07370688      -3.78446723  F        0
H       12.88191441       7.13773895      -3.23957932  F        0
H        4.87243006       7.14046961      -5.64294599  F        0
Fe       9.38707906       7.29359678       2.91469535  T        0
Fe      11.70113368       5.78447559       1.54384189  T        1
O       10.11675632       6.63643761       1.33607584  T        2
