141
Lattice="19.123 0.0 0.0 0.0 14.277 0.0 0.0 0.0 7.5465" Properties=species:S:1:pos:R:3:move_mask:L:1:tags:I:1 i=128 E=-2603.9155142701 regions="_JSON [\"Active\"]" n_terminators=32 energy=-955.3884770702791 pbc="F F F"
O        5.87797758       1.14444453       1.38050523  T        0
O       15.64211481       8.44466281       5.78788581  T        0
O       13.03551504       1.10208003       1.45296314  T        0
O        3.63890385       8.44264494       5.56907509  T        0
O        6.05407421      13.11945622       1.48761267  T        0
O       15.68618207       5.75863718       5.84890293  T        0
O       13.05918369      13.16209769       1.44188706  T        0
O        3.38253364       5.77393647       5.81831902  T        0
O       13.19672885      13.18345851       6.17398431  T        0
O        3.22913019       5.81535425       1.60779944  T        0
O        6.05319481      13.17618757       6.10877208  T        0
O       15.58103060       5.80289521       1.77010971  T        0
O       13.03601710       1.10366849       6.07090567  T        0
O        3.21467585       8.54171289       1.66363412  T        0
O        6.26950077       1.25512027       5.40391320  T        0
O       15.59080521       8.48773199       1.76019291  T        0
O        7.22684807       3.20264106       2.55424884  T        0
O       17.22886670      10.58577786       6.20067352  T        0
O       11.87180120       3.35408543       2.45515776  T        0
O        1.99941442      10.42664552       6.34627160  T        0
O        7.28421731      10.86728796       2.44322964  T        0
O       17.11124586       3.46294493       6.11280333  T        0
O       11.91818348      10.82458689       2.36721738  T        0
O        2.11949779       3.42579698       6.17602959  T        0
O       12.03067645      10.93065336       5.10847095  T        0
O        2.01917777       3.38749284       1.46459243  T        0
O        7.12601553      10.89742723       5.06177691  T        0
O       17.13545687       3.61561561       1.38858682  T        0
O       11.82414893       3.34403410       5.09609827  T        0
O        2.00595162      10.96101369       1.48547774  T        0
O        7.34735852       3.68408375       5.25410324  T        0
O       17.18579308      10.63560837       1.38323239  T        0
O        6.68125633       3.22156124      -0.04263200  T        0
O       16.14066485      10.13425966       3.78945296  T        0
O       12.44882849       3.23480808      -0.05007064  T        0
O        2.94842844      10.22805839       3.79298835  T        0
O        6.63662557      11.01012846      -0.04407390  T        0
O       16.08656423       4.11131226       3.77107994  T        0
O       12.55676339      10.96092513      -0.05715932  T        0
O        3.01096113       4.15288139       3.74043857  T        0
O        4.70942122       3.57573415       1.78077014  T        0
O       14.59964607      10.92994702       5.84915379  T        0
O       14.46990184       3.35485769       1.78430766  T        0
O        4.56131403      10.96922432       5.79601119  T        0
O        4.68433607      10.79656869       1.85186777  T        0
O       14.42966715       3.38826723       5.73107149  T        0
O       14.54651886      10.97344756       1.80413580  T        0
O        4.72083498       3.46416998       5.67065046  T        0
O       11.41240436       8.30104809       3.92434185  T        0
O        7.53745161       8.52068013       3.83870070  T        0
O       11.58067584       5.67195962       3.77559992  T        0
O        7.56155387       5.67229177       3.65638443  T        0
O        9.46976068      10.10853326       3.97052601  T        0
O        9.57725323       3.89317517       3.72882067  T        0
O       13.46751930       7.03238757       5.09963400  T        0
O        5.79514669       6.81346649       5.38361230  T        0
O        5.31098213       7.18333568       2.52850923  T        0
O       13.36185943       7.16001815       2.42691914  T        0
O       14.11952734       7.12496711      -0.08346647  T        0
O        4.88352261       7.22259293      -0.03764366  T        0
Si       6.08879912       2.77854845       1.42703740  T        0
Si      15.88354672      10.03301735       5.41151718  T        0
Si      12.99127353       2.75559196       1.42346123  T        0
Si       3.28388277      10.03616628       5.38401534  T        0
Si       6.12125462      11.46564789       1.44723377  T        0
Si      15.81884508       4.18796183       5.38739109  T        0
Si      13.02751561      11.49588294       1.42523004  T        0
Si       3.28762235       4.20959749       5.34370687  T        0
Si      13.08980897      11.52265525       6.14482686  T        0
Si       3.25450509       4.25447908       2.11917308  T        0
Si       6.06560164      11.52341167       6.12602047  T        0
Si      15.80860310       4.22358979       2.15791275  T        0
Si      12.96955516       2.75694824       6.11128234  T        0
Si       3.23041383      10.10480434       2.17755962  T        0
Si       6.15105172       2.77996992       6.01128878  T        0
Si      15.84778827      10.06491895       2.17191369  T        0
Al      11.26667431      10.14639815       3.79271129  T        0
Si       7.83526291      10.14787139       3.79670210  T        0
Si      11.22416737       4.07244264       3.76635138  T        0
Si       7.95873406       4.09253970       3.69867854  T        0
Si      14.76406221       7.09887702       6.09692589  T        0
Si       4.33185460       7.07501337       6.11420186  T        0
Si       4.14108293       7.18935877       1.43356852  T        0
Si      14.69215880       7.15198926       1.46131594  T        0
Si      12.48716141       7.04434914       3.79876999  T        0
Al       6.49713107       7.10277105       3.72647136  T        0
O        6.30495958       1.20318653       9.71191037  T        0
O        3.56583264       5.81876907       9.75222775  T        0
O        3.40527446       8.43651937       9.87142166  T        0
O        7.57633490       3.55439001       9.90448658  T        0
O        2.36418938       3.55077968       8.81974146  T        0
O        6.46168405       2.89114398       7.60830210  T        0
O       12.44014841       3.21841486       7.59513385  T        0
O        6.60500465      11.00893310       7.58833640  T        0
O       12.51586462      11.00627783       7.59732516  T        0
O        2.84322770       3.81370722      11.40029734  T        0
O        4.87879015       3.51294736       9.66471542  T        0
O        1.80756622       1.14088274       7.63400420  T        0
O       -0.03249852       3.09969610       7.82729251  T        0
O        5.90395722       7.23847250       9.86527079  T        0
O       14.14417077       7.10124872       7.62337557  T        0
O        4.57151085       7.22228361       7.71111916  T        0
Si       6.27206979       2.78977745       9.25297787  T        0
Si       3.40604112       4.19165025       9.90058916  T        0
Si       1.56288797       2.78483290       7.59991389  T        0
Si       4.34632047       7.19593077       9.32319525  T        0
H        5.61083456       0.52083913       2.07985367  F        0
H       13.50938118       0.51971906       2.07492992  F        0
H        5.61112307      13.75835362       2.07975607  F        0
H       13.50958039      13.75682243       2.07498241  F        0
H       13.51084140      13.75504172       5.44776650  F        0
H        5.62495998      13.75277707       5.44935724  F        0
H       13.50975252       0.52161770       5.44778410  F        0
H        5.62509051       0.52255101       5.44942550  F        0
H       17.28974254      11.12548174       7.01862795  F        0
H        1.83343022      11.12554006       7.01950242  F        0
H       17.28979000       3.14560285       7.02339196  F        0
H        1.83183800       3.14857954       0.53722786  F        0
H       17.29134854       3.14797220       0.53999843  F        0
H        1.83154049      11.12909684       0.54034962  F        0
H       17.29120144      11.12876736       0.54010345  F        0
H        6.35952436       2.97904956      -0.93427223  F        0
H       12.76076393       2.97683097      -0.93375646  F        0
H        6.36236324      11.29726414      -0.93275871  F        0
H       12.76174962      11.29928001      -0.93393629  F        0
H       14.60982961       7.13673871      -0.92783774  F        0
H        4.51175007       7.13509558      -0.92932085  F        0
H        5.61083456       0.52083913       9.62635367  F        0
H        3.36626427       9.38386245       9.62662257  F        0
H        7.72835374       3.98992704      10.77074871  F        0
H       12.76321398       2.97604733       8.47995589  F        0
H        6.35946036      11.30224636       8.48133548  F        0
H       12.76333233      11.30075111       8.47967776  F        0
H        3.19279804       4.15795734      12.24400931  F        0
H        2.56244240       0.51556882       7.54734209  F        0
H       -0.96435880       2.93479999       7.54732830  F        0
H        6.24001829       7.13882896      10.76907540  F        0
H       14.61405599       7.13800201       8.47661577  F        0
Fe       7.57311235       5.81616682       5.94124016  T        1
Fe       9.51832489       8.02785620       4.75114258  T        2
O        9.01727123       6.89461209       6.12646346  T        3
