136
Lattice="24.397 0.0 0.0 0.0 24.397 0.0 0.0 0.0 24.397" Properties=species:S:1:pos:R:3:move_mask:L:1:tags:I:1 i=41 E=-6943.8331748197 regions="_JSON [\"Active\"]" n_terminators=32 energy=-912.7470402238782 pbc="F F F"
O       21.64709667       2.57914419       0.09357886  T        0
O       11.90493257       9.64717099       2.71042942  T        0
O       21.80427621       6.21825985       3.47157314  T        0
O       15.66931865       9.73240155       6.23331915  T        0
O       20.85796627      12.38515012       3.65978565  T        0
O       15.54911525       6.28440219       9.72534522  T        0
O       14.84528815       9.80908673      -0.32844790  T        0
O       21.89504159      -0.15241526       2.61454761  T        0
O       18.25859362       9.71446938       3.46427591  T        0
O       21.95729299       3.42340445       6.36852702  T        0
O       18.44187400       3.31035047       9.69207559  T        0
O       23.73771710       1.63941008       1.94988194  T        0
O       13.79635540      11.23896035       1.70785326  T        0
O       22.66895150       5.49991107       7.94989688  T        0
O       22.73806754       8.12032578       5.46681831  T        0
O       17.66132162      10.50574964       7.89966171  T        0
O       20.18625521      10.40182733       5.25709702  T        0
O       23.44405881       4.26630266       4.33634622  T        0
O       18.86992548      14.15238708       4.25585096  T        0
O       16.41683364      11.44783569       4.31761731  T        0
O       17.64569822       7.86823221      10.54645021  T        0
O       19.98595435       5.37193797      10.66262944  T        0
O       12.15038452      12.22395512       3.63064350  T        0
O       20.87328788       5.90116090       6.13040620  T        0
O       18.17418359       8.81641351       5.99851577  T        0
O       21.96751772      12.25339050       6.14730432  T        0
O       20.92042530       0.00924019       0.09669120  T        0
O       24.50761889       2.49410758       6.08637677  T        0
O       24.35263967       6.15566446       2.68330049  T        0
O       18.34747179      12.22935789       2.61874767  T        0
O       14.59937307      12.22531261       6.17913029  T        0
O       18.11202004       5.88712261       8.91919115  T        0
O       22.58633129       4.33738338       1.79306816  T        0
O       13.93121693      10.48129366       4.30362827  T        0
O       20.01013565       7.92916499       4.27422102  T        0
O       16.63747718       7.97645634       8.02927277  T        0
O       22.72162498      10.53965808       4.34187232  T        0
O       20.20066864      14.06564207       1.82109827  T        0
O       16.39148012      10.57204415       1.77414311  T        0
O       22.66604953       1.69834341       4.40984771  T        0
O       20.22409183       4.32910673       8.16718851  T        0
Al      23.27283212       2.92142307       0.91080553  T        0
Si      12.93351402      10.89691037       3.06421671  T        0
Al      21.45235854       7.07472397       5.02883090  T        0
Si      17.00458974       9.24378272       7.05973187  T        0
Si      21.42941801      11.40820377       4.84759277  T        0
Si      15.13393041      10.98649982       0.79777599  T        0
Si      23.17145796       0.73770746       3.16824805  T        0
Si      19.14054549       9.25520601       4.76685121  T        0
Si      21.41494347       4.77981725       7.14156052  T        0
Si      23.67416258       9.28646124       4.84847142  T        0
Si      23.13759933       2.97506312       5.31963875  T        0
Si      17.33577544      11.01449222       3.03308075  T        0
Si      19.19453710       4.73940388       9.35952907  T        0
Si      15.16072688      10.97541937       5.27278304  T        0
Si      19.56879786      13.22187717       3.08197276  T        0
Si      23.07186789       5.23652128       3.08503126  T        0
Si      16.98348268       6.99961081       9.30987342  T        0
O       24.52226056       8.69856880       3.55037218  T        0
O       28.01391595       8.84484275       0.17314561  T        0
O       28.87916761       6.76323934       1.74501023  T        0
O       26.20807132       6.72817004       4.39539805  T        0
O       24.73298956       9.90190722       5.95400952  T        0
O       26.34853118       7.73353263       1.86248838  T        0
Si      27.62324834       7.40317714       0.88526331  T        0
Si      25.37055462       7.36366440       3.12022253  T        0
O       28.01177186       5.92928617      -2.80347441  T        0
O       24.65696120       2.39442089      -2.71818346  T        0
O       26.23031334       1.72573454      -0.62332892  T        0
O       28.92464080       4.38966388      -0.70960622  T        0
O       27.22225222       6.28273581      -0.23293674  T        0
O       24.33274675      -0.16954745      -3.54753886  T        0
O       26.43872120       4.17112898      -1.79232333  T        0
Si      27.64403760       5.18914239      -1.37475540  T        0
Si      25.41641317       2.96555004      -1.36203734  T        0
O       18.13070803       2.38999873      -3.59384862  T        0
O       20.82212923       2.41508693      -6.23403570  T        0
O       20.08949515       0.72055456      -4.31974508  T        0
O       22.62646402       0.93215609      -1.75924572  T        0
O       18.87258748       1.84912312      -8.05333099  T        0
O       16.30861726       1.86960240      -5.54197781  T        0
O       24.35658039       3.48964188      -0.28105015  T        0
O       15.62671587      12.38918927       0.09874081  T        0
O       18.28257948      -0.08859490      -2.46691889  T        0
O       21.94872931      -0.06351789      -6.13604641  T        0
O       18.33156471       3.45188735      -6.06957757  T        0
O       20.03520439       1.68824625      -1.81803021  T        0
O       22.59608998       1.66986498      -4.31530483  T        0
O       20.15107054       4.30151543      -7.91304140  T        0
O       16.49421974       4.31106049      -4.25449467  T        0
Si      19.11688136       1.18469941      -3.08534399  T        0
Si      21.35006240       1.19474440      -5.26884959  T        0
Si      23.57717020       1.21282582      -3.07968802  T        0
Si      19.54489638       3.01090964      -7.08650141  T        0
Si      21.30000463       1.26237807      -0.87261184  T        0
Si      17.29855663       3.01331959      -4.87311932  T        0
O       22.55362311      -1.91968188       0.61372413  T        0
O       24.31010735      -0.27050257       3.80610955  T        0
O       20.09956956      -1.85676773       1.91051116  T        0
Si      21.37222178      -0.99924929       1.31790839  T        0
H       11.67127885       9.33842242       1.81195952  F        0
H       15.43757911       5.57209275      10.38640946  F        0
H       14.01041460       9.33842077      -0.52721165  F        0
H       17.77043311       3.23924387      10.38640412  F        0
H       23.12591797       5.02704618       8.65412107  F        0
H       17.22544067      10.92750153       8.65411313  F        0
H       19.36965547      14.75328399       4.82834093  F        0
H       17.22544070       8.65411150      10.92750362  F        0
H       20.85245744       5.02708867      10.92752556  F        0
H       11.39908935      12.70105073       3.24464026  F        0
H       21.54216027      12.99764967       6.60187561  F        0
H       24.89951425       2.85451703       6.89840128  F        0
H       15.05290853      12.70105704       6.89848521  F        0
H       19.78591980      14.73191782       1.24430354  F        0
H       28.68412771       8.95914275      -0.52719976  F        0
H       29.22534432       7.17131743       2.55494170  F        0
H       26.95194123       7.17131746       4.82834527  F        0
H       25.19630608       9.34383456       6.60185911  F        0
H       28.68420928       6.62630035      -2.86021198  F        0
H       26.95192867       1.27083937      -1.07240246  F        0
H       29.22533941       3.54426653      -1.07238230  F        0
H       25.19622735      -0.50276655      -3.24494277  F        0
H       19.36968740       1.27081557      -8.65438303  F        0
H       15.74261410       1.27081536      -5.02730892  F        0
H       15.44299305      12.70103244      -0.79954860  F        0
H       17.49833355      -0.50278089      -2.85477948  F        0
H       21.54221652      -0.50278066      -6.89866328  F        0
H       19.78593015       4.85484827      -8.63303166  F        0
H       15.76396555       4.85484859      -4.61106623  F        0
H       23.12589418      -2.55519498       1.07214050  F        0
H       24.89950013      -0.79949361       3.24468082  F        0
H       19.54187317      -2.53384464       1.48839915  F        0
Fe      20.74887433       4.22169550       0.77013158  T        0
Fe      19.99603555       6.80462228       2.61396737  T        1
O       20.01447884       6.14603814       0.70336439  T        2
O       19.18610895       5.21316490       1.59000580  T        3
