136
Lattice="19.123 0.0 0.0 0.0 14.277 0.0 0.0 0.0 7.5465" Properties=species:S:1:pos:R:3:move_mask:L:1:tags:I:1 i=128 E=-2603.9155142701 regions="_JSON [\"Active\"]" n_terminators=30 energy=-921.6839190233144 pbc="F F F"
O       15.96011834       8.43914683       5.56031932  T        0
O       12.94036505       1.36264285       1.56237238  T        0
O       15.52804441       5.91853051       5.79361310  T        0
O       15.70210126       5.88011843       1.78520050  T        0
O       12.90598871       1.12338322       5.63604807  T        0
O       15.85827374       8.52151939       1.62467987  T        0
O       11.72468549       3.61520171       2.41232546  T        0
O       17.14518675       3.44227128       6.11426645  T        0
O       16.92578037       3.55150633       1.13667499  T        0
O       11.63987121       3.43627637       5.08733058  T        0
O       12.55980131       3.46081468      -0.10958474  T        0
O       16.32133626       4.02984101       3.65762403  T        0
O       14.35101317       3.57828518       1.89948947  T        0
O       14.28513473       3.34757407       5.60387831  T        0
O       11.34772066       8.40076299       3.67715368  T        0
O       17.01065131       1.31959002      -0.34519677  T        0
O       11.82232702       5.82615112       3.87979147  T        0
O        9.52160115       4.54730136       3.74057200  T        0
O       13.43757041       7.53201873       5.17394130  T        0
O       15.45336510      -0.08290135       1.30172182  T        0
O       15.33316528       0.01551211       6.18406193  T        0
O       13.55798806       7.34554549       2.50764314  T        0
O       14.18245698       7.16281282      -0.04814246  T        0
O       14.44446386      -0.01817558       3.71061806  T        0
Si      12.88095774       2.97218511       1.44384439  T        0
Al      15.69216361       4.28688977       5.36180306  T        0
Si      15.79930758       4.27978199       2.08793093  T        0
Si      12.84151613       2.74578467       5.97577553  T        0
Si      17.57824411       2.86762760      -0.21662005  T        0
Si      11.15067077       4.32955412       3.78367153  T        0
Si      14.82659805       7.33698282       6.04016272  T        0
Al      13.76191509      -0.08076234       2.00746437  T        0
Si      13.94799433      -0.07726965       5.30560326  T        0
Si      14.82041734       7.24573724       1.47561864  T        0
Si      12.55219831       7.28429086       3.81292803  T        0
Si      16.21733797      -0.10324136      -0.17833561  T        0
O       21.72115796       3.19178092       8.90258269  T        0
O       21.30335485       1.28911134       7.08164609  T        0
O       19.24469682       2.95045612       7.72671174  T        0
Si      20.88795091       2.83014525       7.51731891  T        0
O       21.19367133       3.84400295       6.23433679  T        0
O       21.23209377       3.87500732       1.26363619  T        0
O       21.34176527       1.30565081       0.46677515  T        0
O       19.21798238       2.88780736      -0.13583608  T        0
Si      20.87394751       2.82917449       0.02248678  T        0
O       21.61956879       3.19582300      -1.41228739  T        0
O       19.19026991      -3.19526333       7.85573706  T        0
O       19.17739720      -3.27800350       0.13289743  T        0
O       12.99734946       1.22146415       9.58413875  T        0
O       15.50742486       5.88162477       9.53887603  T        0
O       15.62296953       8.46189754       9.92498238  T        0
O       11.54548062       3.45929421       9.96312863  T        0
O       16.82505509       3.66526405       8.78579888  T        0
O       12.53207746       2.92339050       7.58187267  T        0
O       16.26531337       3.98548486      11.34514097  T        0
O       14.24986944       3.55494545       9.57121378  T        0
O       17.18365687       1.25136483       7.64336567  T        0
O       15.22813040      -0.09340633       8.86470950  T        0
O       13.16295029       7.21941601       9.84197908  T        0
O       14.47209695       7.53415744       7.63497963  T        0
O       14.55635240      -0.07481426      11.39371425  T        0
Si      12.84268405       2.81008776       9.18507373  T        0
Si      15.69171250       4.28130973       9.82462231  T        0
Si      17.60513010       2.83374953       7.60927488  T        0
Si      13.93345896      -0.08959347       9.86750131  T        0
Si      14.69894165       7.27983224       9.22980539  T        0
Si      16.21946378      -0.07086136       7.57360297  T        0
O       17.13746209       3.72377366      -1.56230232  T        0
O       15.13826547      -0.45681248      -1.37757453  T        0
O       13.04398655      -1.43838350       9.59454038  T        0
O       15.72131608      -6.04895391       9.80963067  T        0
O       11.54259908      -3.68035540       9.85827168  T        0
O       16.79560562      -3.74103453       8.81193192  T        0
O       16.28131257      -3.94545721      11.36612525  T        0
O       12.61659437      -3.13333799       7.55611413  T        0
O       14.23110525      -3.83245545       9.57706146  T        0
O       17.15258889      -1.40838519       7.53579075  T        0
Si      12.87990369      -3.01344073       9.16783172  T        0
Si      15.73947527      -4.39700400       9.87732211  T        0
Si      17.57989045      -2.99998216       7.57963729  T        0
O       15.94517272      -6.05301255       5.67312310  T        0
O       12.96006481      -1.55738969       1.66840367  T        0
O       13.19682207      -1.49348394       5.54754193  T        0
O       15.91498469      -5.98725941       1.72960078  T        0
O       17.10344368      -3.69324271       6.15809426  T        0
O       11.62639100      -3.80434085       2.35142540  T        0
O       11.91863740      -3.76483257       5.02838212  T        0
O       16.78720333      -3.53648289       1.22771510  T        0
O       16.12902361      -4.16996542       3.72814633  T        0
O       12.50367716      -3.50841334      -0.15260662  T        0
O       14.45605656      -3.82968989       5.79259614  T        0
O       14.21356163      -3.90991608       1.89798170  T        0
O       11.30294281      -6.09078551       3.78538821  T        0
O       17.27977947      -1.34520174      -0.18503495  T        0
O        9.51987460      -4.09242945       4.07804197  T        0
Si      15.89690098      -4.43582049       5.33181944  T        0
Si      12.82792007      -3.14720656       1.43522383  T        0
Si      13.03061956      -3.05988975       5.97901775  T        0
Si      15.74381942      -4.40123602       2.14456493  T        0
Si      11.09603127      -4.44202962       3.77384660  T        0
Si      17.57990336      -2.97337337      -0.09761738  T        0
O       17.11304813      -3.73946561      -1.48648262  T        0
H       15.75671561       9.37610020       5.45468838  F        0
H       15.75699573       9.38061947       2.07980242  F        0
H       12.76076393       2.97683097      -0.93375646  F        0
H       11.31595404       9.37380971       3.76235534  F        0
H        8.59637561       4.20354031       3.76204115  F        0
H       14.60982961       7.13673871      -0.92783774  F        0
H       22.00636260       3.98381786       9.40800429  F        0
H       21.68544240       0.51556882       7.54734209  F        0
H       21.98145514       3.97853683       5.66306621  F        0
H       22.00636260       3.98381786       1.86150429  F        0
H       21.68544240       0.51556882       0.00084209  F        0
H       21.98145514       3.97853683      -1.88343379  F        0
H       20.08739461      -2.93488337       7.54749186  F        0
H       20.08739461      -2.93488337       0.00099186  F        0
H       15.75699573       9.38061947       9.62630242  F        0
H       11.39369377       3.98884644      10.77146895  F        0
H       15.92754156       4.15729643      12.25107281  F        0
H       12.88235039       7.13795337      10.76981689  F        0
H       14.07270598       0.00010018      12.23669175  F        0
H       16.23925818       3.97887666      -1.85852020  F        0
H       14.44051635       0.00152190      -1.88177140  F        0
H       15.17712900      -6.61799919       9.23343573  F        0
H       11.39439525      -3.98966818      10.77116771  F        0
H       15.92688062      -4.16242016      12.25007275  F        0
H       15.17320598      -6.62175386       5.84596239  F        0
H       15.17712900      -6.61799919       1.68693573  F        0
H       12.76174962      -2.97771999      -0.93393629  F        0
H       12.12595522      -6.62290057       3.76264176  F        0
H        8.59739021      -4.20337067       3.76217937  F        0
H       16.24044124      -3.98714965      -1.86101282  F        0
Fe      17.68624553       2.62333577       4.31595636  T        0
Fe      16.39833021       0.11556817       3.12310161  T        1
O       18.14520173       1.19546650       2.97341240  T        2
O       17.92500638       0.58086256       4.34107900  T        3
