136
Lattice="19.123 0.0 0.0 0.0 14.277 0.0 0.0 0.0 7.5465" Properties=species:S:1:pos:R:3:move_mask:L:1:tags:I:1 i=128 E=-2603.9155142701 regions="_JSON [\"Active\"]" n_terminators=32 energy=-911.5810376191391 pbc="F F F"
O        6.12882225       1.13392793       1.52386942  T        0
O       15.72327445       8.43654770       5.89150529  T        0
O        3.50294629       8.48030783       5.85155527  T        0
O        6.16346494      13.13680426       1.56571388  T        0
O       15.94269144       5.77684962       5.83880294  T        0
O       12.87799508      13.01111973       2.03984531  T        0
O        3.49494027       5.78997466       5.86318868  T        0
O       13.08004295      13.13042932       6.06276156  T        0
O        3.45149716       5.79852369       1.66560590  T        0
O        6.25121497      13.10466890       5.82777670  T        0
O       15.41425446       5.79345100       2.26551347  T        0
O        3.45706629       8.48868016       1.68958481  T        0
O        6.22376260       1.15292552       5.89579533  T        0
O       15.70744883       8.43666985       1.75876769  T        0
O        7.22815798       3.45395534       2.45850158  T        0
O       17.18495809      10.70944288       6.13931343  T        0
O       12.22264053       3.25046154       2.84789188  T        0
O        1.99590147      10.72353309       6.13787279  T        0
O        7.26432568      10.80152426       2.46115331  T        0
O       11.90397574      10.54282558       2.32915752  T        0
O        2.01262837       3.51987860       6.09805919  T        0
O       11.98098957      10.85882970       5.00589644  T        0
O        1.98039028       3.53066294       1.42922131  T        0
O        7.24701588      10.69579036       5.09775241  T        0
O       11.66881776       3.68397091       5.36160882  T        0
O        2.00299734      10.76974691       1.43826665  T        0
O        7.29325423       3.51808144       5.09517983  T        0
O       17.07914637      10.72476641       1.35961050  T        0
O        6.69484845       3.21474169      -0.05112267  T        0
O       16.13974972      10.08842964       3.81074908  T        0
O        3.07338629      10.13361141       3.78185854  T        0
O        6.70076584      11.07010213      -0.04738451  T        0
O       12.68190025      11.23790427      -0.07199308  T        0
O        3.07575227       4.16438111       3.76511959  T        0
O        4.64678894       3.38263947       1.75212483  T        0
O       14.51598502      10.84488505       5.78412391  T        0
O        4.65742978      10.91835426       5.79291899  T        0
O        4.67290994      10.89201682       1.78149673  T        0
O       14.49337446      10.83051793       1.84431414  T        0
O        4.68564838       3.37380860       5.74615558  T        0
O       11.32997145       8.47044126       3.79555803  T        0
O        7.92690156       8.45182272       3.70854852  T        0
O       11.30846954       5.75318385       3.65299707  T        0
O       17.30335216      13.12178896       0.07723213  T        0
O        7.91153652       5.77768858       3.70990378  T        0
O        9.59555849      10.50187182       3.79247745  T        0
O        9.60277061       3.75212305       3.66475505  T        0
O       13.63401752       6.97109136       5.06480461  T        0
O        5.74450922       7.12345585       5.20668124  T        0
O        5.67886144       7.13157784       2.37582804  T        0
O       13.29746440       7.40859464       2.20265686  T        0
O       14.50724614       6.91455977      -0.09267374  T        0
O        5.00932125       7.15758942      -0.10166526  T        0
Si       6.13331663       2.78817636       1.43482273  T        0
Si      15.87769016       9.99968544       5.43448132  T        0
Si       3.31638729      10.04788625       5.40595329  T        0
Si       6.15971983      11.48281920       1.45182811  T        0
Si      13.03901772      11.46600487       1.51191142  T        0
Si       3.32630267       4.22917315       5.38774633  T        0
Si      13.04981614      11.48158929       6.10628940  T        0
Si       3.29722332       4.23633528       2.13859715  T        0
Si       6.17071051      11.46720811       6.07544744  T        0
Si       3.30953219      10.05359731       2.15614215  T        0
Si       6.18053390       2.80082191       6.07640729  T        0
Si      15.87840992      10.01130268       2.20524149  T        0
Si      11.17425032      10.12849386       3.80654355  T        0
Si       7.97779398      10.11367125       3.75679206  T        0
Si      11.20216081       4.09828125       3.83813739  T        0
Si      17.57709703      11.48785416      -0.02752914  T        0
Si       7.99075545       4.11047366       3.74076828  T        0
Si      14.88062557       7.02611637       6.09460450  T        0
Si       4.42893165       7.13416414       6.12409937  T        0
Si       4.38807731       7.14372002       1.42624060  T        0
Si      14.78555977       7.10540436       1.50781670  T        0
Al      12.49866981       7.07143771       3.81143523  T        0
Al       6.66869432       7.12683617       3.77074305  T        0
O       19.16695847      11.21641534      -0.32032922  T        0
O        6.69921881       3.19091796       7.58944241  T        0
O        6.70924395      11.10773736       7.59050546  T        0
O       12.47973414      11.03192638       7.58220720  T        0
O       14.20969581       6.97817916       7.60557951  T        0
O        5.02752114       7.13915539       7.66077610  T        0
O       15.58955628       8.48343590      -1.97841655  T        0
O       15.93601309       5.85433095      -2.10932904  T        0
O       12.80190239      13.09131956      -2.01670070  T        0
O       16.77375047      10.80136859      -1.28689368  T        0
O       11.58792676      10.86029761      -5.24350233  T        0
O       11.65214854      10.74514006      -2.51905144  T        0
O       16.33309040      10.31427873      -3.84271609  T        0
O       14.28367309      10.81062754      -2.16953241  T        0
O       11.84438662       8.48750396      -3.94898000  T        0
O       11.35011151       5.88084071      -3.84843808  T        0
O        9.52032890       9.75782560      -3.93658188  T        0
O       13.47920203       6.92818934      -2.54586914  T        0
O       13.45173697       6.71727000      -5.26605707  T        0
Si      15.74239465      10.08324964      -2.32219784  T        0
Si      12.87046618      11.47491426      -1.71169136  T        0
Si      11.14438574       9.97900802      -3.90828658  T        0
Si      14.86920995       7.04282483      -1.69988390  T        0
Si      12.54865672       7.00843073      -3.90898983  T        0
H        5.61083456       0.52083913       2.07985367  F        0
H        5.61112307      13.75835362       2.07975607  F        0
H       15.75636517       4.89339805       5.45628994  F        0
H       13.50958039      13.75682243       2.07498241  F        0
H       13.51084140      13.75504172       5.44776650  F        0
H        5.62495998      13.75277707       5.44935724  F        0
H       15.75706449       4.89440344       2.08043705  F        0
H        5.62509051       0.52255101       5.44942550  F        0
H       17.28974254      11.12548174       7.01862795  F        0
H       12.44565577       3.15588527       1.90033815  F        0
H        1.83343022      11.12554006       7.01950242  F        0
H        1.81954193       3.15353441       6.98813474  F        0
H        1.83183800       3.14857954       0.53722786  F        0
H       12.44354748       3.15657450       5.63339447  F        0
H        1.83154049      11.12909684       0.54034962  F        0
H        6.35952436       2.97904956      -0.93427223  F        0
H        6.36236324      11.29726414      -0.93275871  F        0
H       16.56020813      13.76127004      -0.00066979  F        0
H        4.51175007       7.13509558      -0.92932085  F        0
H       20.08739461      11.34211663       0.00099186  F        0
H        6.35949513       2.97597070       8.47938261  F        0
H        6.35946036      11.30224636       8.48133548  F        0
H       12.76333233      11.30075111       8.47967776  F        0
H       14.61405599       7.13800201       8.47661577  F        0
H        4.50898861       7.14016697       8.47499567  F        0
H       15.75636517       4.89339805      -2.09021006  F        0
H       13.51084140      13.75504172      -2.09873350  F        0
H       12.44599272      11.12072140      -5.64644730  F        0
H       15.92569105      10.11584057      -4.70878458  F        0
H       11.31540413       4.90177526      -3.78397907  F        0
H        8.59739021      10.07362933      -3.78432063  F        0
H       14.25080708       7.13791561      -5.64139813  F        0
Fe       9.50298043       7.05695903       3.20536491  T        0
Fe      11.72874941       8.49210461       1.39301835  T        1
O        9.89255959       8.56452123       0.89568491  T        2
O       10.17854976       7.18171927       1.30427239  T        3
