132
Lattice="20.102 0.0 0.0 0.0 19.731 0.0 0.0 0.0 13.253" Properties=species:S:1:pos:R:3:move_mask:L:1:tags:I:1 i=77 E=-3472.0240129048 regions="_JSON [\"Active\"]" n_terminators=34 energy=-874.9215535117713 pbc="F F F"
O       10.05186907       8.41740628       9.42122270  T        0
O        9.86456313      18.66043657       3.92339262  T        0
O        9.98090847      11.08439576       4.03167051  T        0
O        2.21278621      11.34493605       3.98565436  T        0
O        7.53457929       8.19687254      10.46841950  T        0
O       12.07976725      18.76020515       2.49172018  T        0
O       12.36982676      11.07168262       2.76117692  T        0
O        8.02745710       7.30189113       8.07015000  T        0
O       12.16693682      17.55606472       4.87533339  T        0
O       11.85381229      12.69670019       4.77530940  T        0
O        8.11564837       9.97990184       8.55370313  T        0
O       11.81902234      20.24160276       4.75390782  T        0
O       12.16895233      10.06133465       5.24706324  T        0
O        3.57357636      10.62360405       6.11598717  T        0
O       13.46478616      10.78747877       0.41199928  T        0
O        3.05769902       8.84082203       4.10926656  T        0
O       13.93457745       9.00571356       2.52342111  T        0
O        4.86601087      10.79963379       3.75962849  T        0
O        4.94513282      18.50071056       4.14406015  T        0
O       15.08557288      11.40886826       2.43838365  T        0
O        3.81342033      12.40937292       8.02468898  T        0
O       13.99879611      17.16947012      12.08483494  T        0
O       14.82112806      12.25433744      11.65314440  T        0
O        5.83360417      10.65853274       7.44768867  T        0
O        5.85252284      19.26006084       7.53911925  T        0
O       14.23707456       8.84220312       6.53733851  T        0
O        3.63875003       9.79515468       8.71043723  T        0
O        6.03846076      10.12521349       1.38606948  T        0
O        7.56667312      12.54062823       8.02806840  T        0
O        7.87314114      17.52236379       7.95951108  T        0
O       12.33607145       7.40533813       5.19851127  T        0
O        8.10415734      10.83518988       6.02423591  T        0
O        7.89827447      18.92172733       5.71461076  T        0
O       11.83916709       8.59007921       7.47249522  T        0
O        7.43357150      11.31547612       3.42919315  T        0
O        7.30956096      18.37608481       3.13896528  T        0
O       12.57232356       8.40755231      10.10001201  T        0
O        8.41931734       8.55429677       4.05795503  T        0
O       11.45258289      10.67190347       9.03177903  T        0
O       11.89388697      18.96935289       9.45537915  T        0
O        5.71286626      12.70562063       2.01753738  T        0
O        5.32399150      16.93513878       2.00081674  T        0
O       10.05425970      16.91315974       9.41942471  T        0
O        9.89647062      13.15261566       9.05131825  T        0
O       10.24361417       6.60006413       3.66211677  T        0
O        7.71061726      16.99026644      10.61455274  T        0
O        7.60638065      13.12573080      10.66346028  T        0
O       12.75054700       6.59369706       2.74943589  T        0
O        8.18853331      15.03690031       8.79904944  T        0
O       12.04688945       4.85442877       4.70589529  T        0
O       13.87387309       7.46045925       0.46063746  T        0
O       15.01248216      13.04363269       9.06326854  T        0
O       15.45493326       6.77241622       2.48519984  T        0
O       15.40385604      17.18887948       9.90897603  T        0
O        5.98720737       6.66269354       6.42075298  T        0
O       14.18416705      12.96386533       5.75216338  T        0
O       14.21379959      16.96892447       6.56308240  T        0
O        7.63333782       4.71893110       7.46747666  T        0
O       12.45899501      15.08665447       5.79557517  T        0
O        8.46578022       6.39385574       5.59395046  T        0
O       11.87763803      13.11221150       7.38174239  T        0
O       11.71058501      17.13381542       7.41539158  T        0
O        7.70463131       6.21783299       2.99720090  T        0
O       12.60655649      12.99505576      10.21744274  T        0
O       12.71181948      16.53117943       9.79260376  T        0
O       14.40941197      14.83079474      10.90126182  T        0
Si       8.45120871       8.47833703       9.12331025  T        0
Si      11.49066267      18.78986473       4.03028743  T        0
Si      11.61041696      11.18075028       4.19877688  T        0
Si       3.45231695      10.39734811       4.50079796  T        0
Si      13.73757354      10.55674441       2.01277413  T        0
Si       4.22883927      10.86991878       7.59733659  T        0
Si       7.42203992      10.98448987       7.47884432  T        0
Si       7.45998714      18.96491753       7.28128643  T        0
Si      12.65215898       8.73259609       6.08356302  T        0
Al       8.47987421      10.19941097       4.43035825  T        0
Si       8.31929416      19.17401512       4.15077276  T        0
Si      11.51422008       9.06462719       9.01333902  T        0
Si       5.97910775      11.20311515       2.63481290  T        0
Si       5.72651638      18.38194393       2.68900270  T        0
Si       8.45773128      16.62932795       9.19072870  T        0
Si       8.28659156      13.43251646       9.20065422  T        0
Si      11.81001834       6.35385458       4.07158412  T        0
Si      13.99290215       7.43224222       2.09305283  T        0
Si       7.52571460       6.27062011       6.91332971  T        0
Si      12.64358086      13.46513074       5.96702646  T        0
Si      12.63576085      16.67323740       6.15492563  T        0
Si       8.70350608       6.96881506       4.08147528  T        0
Al      11.53659816      12.37971896       9.01983478  T        0
Si      11.57610268      17.41264508       9.03208214  T        0
Si      14.16879139      13.25481569      10.49898728  T        0
Si      14.13411353      16.41803537      10.62760624  T        0
O        8.34655607      20.20619603       7.92623429  T        0
O        5.31799879      19.54366158       1.58366095  T        0
O        8.09233240      20.73947129       3.68719995  T        0
H        1.81269882      11.30123319       3.09859993  F        0
H        7.07153747       8.87866318      10.98534327  F        0
H       13.03074803      18.74401529       2.26762503  F        0
H       12.34310542      20.30287261       5.56688324  F        0
H       14.08297195      10.81847671      -0.34490677  F        0
H        3.60112680       8.06005012       4.30646574  F        0
H        4.05829635      18.79668859       4.41071282  F        0
H       15.58095515      11.20568437       3.25070227  F        0
H        4.03182275      12.92715973       8.82439874  F        0
H       14.40563884      18.04556895      12.19637069  F        0
H       14.40563885      11.55048737      12.19637067  F        0
H        5.06295559      18.75104696       7.26028496  F        0
H       15.03932990       8.88569483       5.99268334  F        0
H        4.11249823       9.08086468       9.18193973  F        0
H        5.72719027       9.20254625       1.33756862  F        0
H       13.54926599       8.42132791      10.11787432  F        0
H       11.52310955      19.83515307       9.21116341  F        0
H        5.53537813      12.95496052       1.09262639  F        0
H        5.53537813      16.64109584       1.09262638  F        0
H        6.74596320      16.92620537      10.74076342  F        0
H        6.74596321      12.66985099      10.74076342  F        0
H       11.61525895       4.01919395       4.45233654  F        0
H       14.23421140       6.74908840      -0.07819396  F        0
H       15.75661379      12.42699387       9.00459924  F        0
H       15.83774429       6.73639486       3.37716865  F        0
H       15.75661380      17.16906248       9.00459925  F        0
H        5.18772305       6.48136951       6.94399129  F        0
H       14.91456245      13.24933472       6.30897701  F        0
H       14.91456244      16.34672163       6.30897701  F        0
H        7.92514400       4.01763560       6.85279547  F        0
H        6.78202892       6.52695113       2.93525138  F        0
H        8.32625906      20.60985804       8.81306681  F        0
H        5.72719026      20.39380587       1.33756863  F        0
H        8.66651872      21.47399316       3.93953912  F        0
Fe       8.61137188      12.78961716       4.33951451  T        0
Fe       9.95240652      13.89816564       7.03862314  T        1
O        9.06909270      14.14208610       5.45999583  T        2
