139
Lattice="19.123 0.0 0.0 0.0 14.277 0.0 0.0 0.0 7.5465" Properties=species:S:1:pos:R:3:move_mask:L:1:tags:I:1 i=128 E=-2603.9155142701 regions="_JSON [\"Active\"]" n_terminators=34 energy=-924.3988710523213 pbc="F F F"
O       15.47873234       8.45042753       5.52672422  T        0
O       13.12736635       1.16479843       1.44711123  T        0
O       15.67287876       5.86090339       5.50248266  T        0
O       12.96503474      13.17980525       1.50261980  T        0
O       12.67625603      13.26642552       5.57717715  T        0
O       15.62329688       5.97046636       1.91660595  T        0
O       12.74199816       1.12169607       5.48945037  T        0
O       15.50938314       8.55450588       1.72859584  T        0
O       17.11803547      10.69130182       6.11298368  T        0
O       11.90447248       3.42089275       2.51237952  T        0
O       17.10695671       3.34093706       6.23814725  T        0
O       11.88104465      10.83943770       2.50586255  T        0
O       11.58288436      10.83989617       5.16323893  T        0
O       16.98716293       3.99310566       0.91821324  T        0
O       11.63739074       3.51603625       5.16107700  T        0
O       16.96847149      10.66528026       1.06603722  T        0
O       16.29839036      10.28607618       3.62675081  T        0
O       12.47342667       3.26703406      -0.04573639  T        0
O       16.36095408       4.22662232       3.58471881  T        0
O       12.48116345      11.02465060      -0.03749862  T        0
O       14.22080207      11.12246249       5.61735044  T        0
O       14.46222858       3.47521340       1.78548486  T        0
O       14.28613746       3.31470192       5.53073573  T        0
O       14.44112184      10.99811794       1.85787625  T        0
O       11.47919687       8.50991821       3.81577375  T        0
O       11.41359008       5.79027075       3.70533588  T        0
O       17.33403682      13.16380593       0.01731362  T        0
O        9.49392248      10.34975146       3.47107602  T        0
O        9.49328390       3.87998106       3.51382647  T        0
O       13.27589009       7.01231747       5.12832350  T        0
O       13.31156702       7.17249125       2.43150532  T        0
O       14.11138362       7.06153432      -0.09028070  T        0
Al      15.58132465      10.17892751       5.29086243  T        0
Si      12.98187791       2.80816983       1.45219980  T        0
Al      15.82258984       4.04409115       5.31972940  T        0
Si      12.93765572      11.52699927       1.46619571  T        0
Si      12.74564566      11.65920123       5.99562030  T        0
Si      15.82233087       4.30427196       2.03577269  T        0
Si      12.84662713       2.71767859       5.95515782  T        0
Si      15.79821183      10.13913149       2.06168277  T        0
Si      11.09444984      10.12054512       3.76071185  T        0
Si      11.09744662       4.16464920       3.74814708  T        0
Si      17.53505270      11.54388694      -0.21248711  T        0
Si      14.67771659       7.11200763       5.96813620  T        0
Si      14.61125362       7.22112270       1.46292883  T        0
Si      12.35380841       7.12644891       3.77819386  T        0
O       21.59665018      11.07380833       8.97480091  T        0
O       20.95966247      13.13335244       7.38619766  T        0
O       19.20552026       2.97135918       7.98075744  T        0
O       19.22145956      11.23118793       7.59204344  T        0
O       24.08479398       7.04028271       7.60900263  T        0
Si      20.86000765      11.49902405       7.55315987  T        0
O       22.81543427       8.48160860       5.71046878  T        0
O       22.47925061       5.83185770       5.73856476  T        0
O       22.46659942       5.87260866       1.94210546  T        0
O       22.84201481       8.49428687       1.67713906  T        0
O       21.54073102      10.72551067       6.25309392  T        0
O       21.30442062      10.61939671       1.15446363  T        0
O       22.18378577      10.13883325       3.66241502  T        0
O       24.09672487      10.86632294       5.18179830  T        0
O       23.78847755      11.08767720       1.60616372  T        0
O       26.84406964       8.39865301       3.75807154  T        0
O       20.94366094      13.13637174       0.11079596  T        0
O       27.00472463       5.87546687       3.75294186  T        0
O       19.15248035      11.28313882      -0.28992700  T        0
O       24.90734796       6.95040850       5.09455040  T        0
O       24.90995544       6.97883987       2.42089062  T        0
O       24.05213139       6.84872557      -0.08905276  T        0
Si      22.65765540      10.04531989       5.23653163  T        0
Si      22.56571977      10.06960512       2.05273081  T        0
Si      20.78210682      11.51602032      -0.13495318  T        0
Si      23.56136136       7.04841670       6.03064850  T        0
Si      23.55974379       7.03170863       1.48540491  T        0
Si      25.87207083       7.07388057       3.75766172  T        0
O       21.57304200      11.10337566      -1.53218949  T        0
O       12.81727705       1.20245791       9.72461956  T        0
O       12.84453699      13.06416007       9.79809591  T        0
O       15.52233744       5.80608251       9.65285070  T        0
O       15.54068368       8.46591629       9.53308763  T        0
O       11.53376106       3.53937382       9.90991401  T        0
O       11.53884102      10.73874541       9.91742450  T        0
O       16.78993579       3.53247936       8.86009995  T        0
O       16.81228120      10.73842186       8.79339448  T        0
O       16.22824901      10.37145455      11.35001405  T        0
O       12.60738118       2.85992051       7.58039660  T        0
O       16.26122821       3.85978233      11.38662625  T        0
O       12.49322449      11.48327108       7.60854325  T        0
O       14.22868977       3.49830066       9.62220060  T        0
O       14.24605969      10.78721179       9.52832442  T        0
O       17.32514697       1.08527236       7.77693915  T        0
O       17.27190428      13.08392080       7.44835863  T        0
O       13.15746665       7.18362786       9.83807060  T        0
O       14.38651224       7.04062083       7.56460864  T        0
Si      12.82057653       2.77773788       9.20764995  T        0
Si      12.80741971      11.51408321       9.21614402  T        0
Si      15.69430912       4.17685455       9.87233357  T        0
Si      15.69009578      10.07963683       9.81334084  T        0
Si      17.60082398       2.72802552       7.66079421  T        0
Si      17.58416955      11.46030213       7.52595026  T        0
Si      14.66731314       7.11741250       9.17632514  T        0
O       16.74220208      11.09086185      -1.60107746  T        0
H       13.50938118       0.51971906       2.07492992  F        0
H       13.50958039      13.75682243       2.07498241  F        0
H       13.51084140      13.75504172       5.44776650  F        0
H       13.50975252       0.52161770       5.44778410  F        0
H       17.29134854       3.14797220       0.53999843  F        0
H       12.76076393       2.97683097      -0.93375646  F        0
H       12.76174962      11.29928001      -0.93393629  F        0
H       16.56020813      13.76127004      -0.00066979  F        0
H        8.59739021      10.07362933       3.76217937  F        0
H        8.59637561       4.20354031       3.76204115  F        0
H       14.60982961       7.13673871      -0.92783774  F        0
H       22.00483182      10.29715766       9.41435165  F        0
H       21.68557806      13.76129914       7.54737584  F        0
H       20.08726577       2.93486642       7.54597012  F        0
H       23.63198861       7.14016697       8.47499567  F        0
H       22.48364390       4.89097090       5.45283813  F        0
H       22.48961743       4.89904760       2.07505888  F        0
H       24.76092223      11.11473374       5.84604825  F        0
H       24.75845825      11.12041654       1.68709931  F        0
H       26.93014812       9.37398274       3.76239518  F        0
H       21.68557806      13.76129914       0.00087584  F        0
H       26.92977964       4.90364681       3.76170371  F        0
H       23.63475007       7.13509558      -0.92932085  F        0
H       22.00608000      10.28902905      -1.85963567  F        0
H       13.50938118       0.51971906       9.62142992  F        0
H       13.50958039      13.75682243       9.62148241  F        0
H       11.39369377       3.98884644      10.77146895  F        0
H       11.39439525      10.28733182      10.77116771  F        0
H       15.92688062      10.11457984      12.25007275  F        0
H       15.92754156       4.15729643      12.25107281  F        0
H       16.56036088       0.51548555       7.54573787  F        0
H       16.56020813      13.76127004       7.54583021  F        0
H       12.88235039       7.13795337      10.76981689  F        0
H       16.24044124      10.28985035      -1.86101282  F        0
Fe      16.78067661       6.39574114       3.87298777  T        0
Fe      18.04123807       9.49965177       4.60316398  T        1
O       18.86830353       7.77514873       4.70458127  T        2
O       18.09813409       7.75850393       3.43269427  T        3
