135
Lattice="19.123 0.0 0.0 0.0 14.277 0.0 0.0 0.0 7.5465" Properties=species:S:1:pos:R:3:move_mask:L:1:tags:I:1 i=128 E=-2603.9155142701 regions="_JSON [\"Active\"]" n_terminators=32 energy=-907.0770710639484 pbc="F F F"
O        6.17258370       1.11564114       1.54506170  T        0
O       15.81735326       8.40516030       5.35285742  T        0
O       13.06019841       1.15459818       1.48386015  T        0
O        3.39544031       8.43476034       5.85371444  T        0
O        6.28867810      13.05645663       2.02571938  T        0
O       15.65621057       5.79235417       5.89083527  T        0
O        3.33037050       5.73334286       5.88433789  T        0
O        3.68845108       5.81228378       1.87324314  T        0
O        5.96109741      13.15747575       6.14329011  T        0
O       15.74550819       5.82718179       1.65748000  T        0
O       12.95412871       1.16063231       5.93877713  T        0
O        3.48925329       8.49239547       1.74862677  T        0
O        6.19151650       1.15971793       5.92819100  T        0
O       15.89942360       8.51730710       1.63457368  T        0
O        7.24421748       3.46245388       2.45884379  T        0
O       11.92607829       3.44625020       2.46573294  T        0
O        1.99244248      10.74888530       6.12973550  T        0
O        7.29147418      10.58720435       2.29449471  T        0
O       17.16034746       3.54607741       6.13518323  T        0
O       12.10264794      11.06262547       2.81644944  T        0
O        1.99446342       3.38460096       6.05407642  T        0
O       11.66145281      10.60379824       5.36037641  T        0
O        2.03272066       3.76273823       1.27906850  T        0
O        7.21277911      11.03682935       4.98623409  T        0
O       17.16628283       3.52642703       1.43687790  T        0
O       11.92059934       3.54536975       5.09771085  T        0
O        2.09729670      10.77362939       1.35489077  T        0
O        7.26663178       3.52192985       5.09014983  T        0
O        6.68086854       3.23010229      -0.04927020  T        0
O       12.47341343       3.25506444      -0.04666474  T        0
O        3.02336366      10.13457936       3.80173757  T        0
O        6.48197284      11.31398652      -0.09231401  T        0
O       16.10112122       4.19396433       3.77547682  T        0
O        3.03843451       4.08418814       3.75495859  T        0
O        4.64843815       3.31006926       1.75977022  T        0
O       14.50206289       3.43122859       1.77561461  T        0
O        4.68109023      10.79332789       5.77442802  T        0
O        4.68555665      10.88198589       1.84738383  T        0
O       14.51137493       3.35778064       5.75690812  T        0
O        4.67569444       3.39821138       5.74928325  T        0
O       11.33657241       8.49886501       3.67529170  T        0
O        7.67957553       8.58758200       3.88158350  T        0
O        1.80650969      13.13193352       0.00811379  T        0
O       11.34432626       5.80940331       3.68925393  T        0
O        7.88033867       5.79402563       3.69378619  T        0
O        9.57034078      10.48532492       3.73704787  T        0
O       -0.03733493      11.18640750      -0.28785263  T        0
O        9.59924694       3.81114541       3.74510714  T        0
O       13.41042935       7.14944880       5.38767230  T        0
O        5.51285172       6.98838799       5.05842497  T        0
O        5.87888925       7.38638067       2.19629802  T        0
O       13.63746096       7.25039752       2.50223177  T        0
O       14.19061285       7.23734433      -0.05466885  T        0
O        4.75683693       7.14789109      -0.18457031  T        0
Si       6.16356707       2.76717736       1.44756264  T        0
Si      13.03119866       2.81077502       1.43635775  T        0
Si       3.28399482      10.01141294       5.42267463  T        0
Si       6.13875596      11.50723572       1.49567332  T        0
Si      15.85218612       4.24259194       5.39911436  T        0
Si       3.27713479       4.17012944       5.37985086  T        0
Si       3.34969306       4.22401199       2.15421171  T        0
Si       6.10345741      11.51454485       6.11757712  T        0
Si      15.86883312       4.26779115       2.14702844  T        0
Si      13.00918031       2.81193963       6.08415273  T        0
Si       3.30038929      10.05832454       2.19772943  T        0
Si       6.16622980       2.80947824       6.08099594  T        0
Si      11.20006887      10.13658748       3.84538964  T        0
Si       7.97026473      10.19543187       3.82157961  T        0
Si       1.55389289      11.49051186      -0.03844377  T        0
Si      11.21286216       4.14372545       3.75544831  T        0
Si       7.98736666       4.13866315       3.75744722  T        0
Si      14.87797715       7.24028724       6.07938154  T        0
Si       4.28850018       7.06185924       6.10143160  T        0
Si       4.42471864       7.18734338       1.41696132  T        0
Si      14.86634039       7.22355298       1.46364262  T        0
Al      12.58287959       7.18455873       3.86490209  T        0
Al       6.67610699       7.10429020       3.82555433  T        0
O        6.68371194       3.21537094       7.59017912  T        0
O       12.48360919       3.24562928       7.58610217  T        0
O        6.68148427      11.06186904       7.58871557  T        0
O       14.81880960       7.66401406       7.68190579  T        0
O        4.95262249       7.07752221       7.61223776  T        0
O        3.49833847       8.47168387      -2.12002186  T        0
O        3.19706050       5.85208522      -2.01354265  T        0
O        6.31813092      13.06974079      -2.14429916  T        0
O        2.33821275      10.77889962      -1.29567109  T        0
O        7.54124370      10.86224477      -5.25565895  T        0
O        7.47588310      10.72908131      -2.53232105  T        0
O        2.82205868      10.42603209      -3.86100552  T        0
O        4.84731380      10.77492665      -2.11851846  T        0
O        7.29448672       8.48260594      -3.97745553  T        0
O        7.78893942       5.87588261      -3.91316818  T        0
O        9.60956911       9.74564055      -3.94276131  T        0
O        5.61256128       6.89404568      -2.66313639  T        0
O        5.72404314       6.75007799      -5.36736523  T        0
Si       3.37724465      10.09243842      -2.34513590  T        0
Si       6.26186283      11.47571091      -1.73318298  T        0
Si       7.98521913       9.97523228      -3.92607397  T        0
Si       4.27293646       7.07497798      -1.75459712  T        0
Si       6.59158809       7.00406787      -3.97845563  T        0
H        5.61083456       0.52083913       2.07985367  F        0
H       15.75671561       9.37610020       5.45468838  F        0
H       13.50938118       0.51971906       2.07492992  F        0
H        5.61112307      13.75835362       2.07975607  F        0
H        5.62495998      13.75277707       5.44935724  F        0
H       13.50975252       0.52161770       5.44778410  F        0
H        5.62509051       0.52255101       5.44942550  F        0
H       15.75699573       9.38061947       2.07980242  F        0
H        1.83343022      11.12554006       7.01950242  F        0
H       17.28979000       3.14560285       7.02339196  F        0
H       12.44599272      11.12072140       1.90005270  F        0
H        1.81954193       3.15353441       6.98813474  F        0
H       12.44514575      11.11938908       5.63275925  F        0
H        1.83183800       3.14857954       0.53722786  F        0
H       17.29134854       3.14797220       0.53999843  F        0
H        6.35952436       2.97904956      -0.93427223  F        0
H       12.76076393       2.97683097      -0.93375646  F        0
H        2.56257806      13.76129914       0.00087584  F        0
H       -0.96427299      11.34215683       0.00103770  F        0
H       14.60982961       7.13673871      -0.92783774  F        0
H        6.35949513       2.97597070       8.47938261  F        0
H       12.76321398       2.97604733       8.47995589  F        0
H        6.35946036      11.30224636       8.48133548  F        0
H       14.61405599       7.13800201       8.47661577  F        0
H        4.50898861       7.14016697       8.47499567  F        0
H        3.36064390       4.89097090      -2.09366187  F        0
H        5.62495998      13.75277707      -2.09714276  F        0
H        6.67686405      11.12256578      -5.64493030  F        0
H        3.19736723      10.11759060      -4.70766930  F        0
H        7.80677964       4.90364681      -3.78479629  F        0
H       10.52611047      10.07370688      -3.78446723  F        0
H        4.87243006       7.14046961      -5.64294599  F        0
Fe       7.50608436       8.50607707       1.52589285  T        0
Fe       9.80837547       6.99737000       2.92834078  T        1
O        9.10285697       7.67820136       1.34321344  T        2
