133
Lattice="20.102 0.0 0.0 0.0 19.731 0.0 0.0 0.0 13.253" Properties=species:S:1:pos:R:3:move_mask:L:1:tags:I:1 i=77 E=-3472.0240129048 regions="_JSON [\"Active\"]" n_terminators=34 energy=-880.1033517892786 pbc="F F F"
O       10.08824045       1.50967708       9.25629603  T        0
O       10.12556457       8.82331758       9.11373325  T        0
O        7.46825617       0.96635945      10.39106875  T        0
O        7.97675568       8.63408212      10.70189747  T        0
O       17.85777097       1.45930287       9.28609358  T        0
O        8.12446088       2.80102477       8.17793171  T        0
O        7.97020588       7.53215847       8.23895698  T        0
O        8.05646108      -0.10076440       7.78919112  T        0
O        7.83107926      10.22168255       8.62633461  T        0
O       11.73434401       9.81936584       4.74375329  T        0
O        6.62710741       0.86252468      12.84847374  T        0
O       16.35112603       0.78790121       7.28820203  T        0
O       14.01145930       0.67134997       2.38645808  T        0
O        4.83403511       1.35774219      10.92273059  T        0
O       15.12098182       8.64523287       8.94839130  T        0
O       15.19377216       1.17585902       9.66462308  T        0
O       16.28782371       2.47657674       5.17421141  T        0
O       14.24953366       9.26743590       5.55524963  T        0
O       14.08740349       1.30481464       6.04802204  T        0
O       14.67345474      10.23829973      11.03609573  T        0
O       15.94429398      -0.16152128       4.85468909  T        0
O       12.39982342       7.32626636       5.18269329  T        0
O       11.85456109       2.53759248       5.41989571  T        0
O       12.10025129       8.86073109       7.25454902  T        0
O       11.98381213       0.85647692       7.54697763  T        0
O       12.67129199       8.81010390       9.86291053  T        0
O       12.60822798       1.24411383      10.11212197  T        0
O        8.22981702       9.13781973       3.66407760  T        0
O        8.51187400       0.71363709       4.50337356  T        0
O       11.65327570      11.01024194       8.58413531  T        0
O       14.49153614       7.54218101      11.35416969  T        0
O       14.25784605       2.80321322      11.58402159  T        0
O        9.82494148       2.79596925       3.37629413  T        0
O       10.13865047       7.16920106       3.73120092  T        0
O       12.66241458       2.95730648       2.60130933  T        0
O       12.43784478       6.74563331       2.52518427  T        0
O       11.57323403       4.97143978       4.39457854  T        0
O       14.15236979       2.28406789       0.40425816  T        0
O       15.32097718       2.96783275       2.72526932  T        0
O       14.63837431       5.18667039      12.60709674  T        0
O        5.89109320       7.02027611       6.54869040  T        0
O        5.98290945       3.11865929       6.46518026  T        0
O       16.23896552       3.13429922      13.45288312  T        0
O       16.38510834       7.11122896      13.25600644  T        0
O        7.70847440       5.14244196       7.16397311  T        0
O        8.33204485       7.30321505       5.64307008  T        0
O        8.41463368       3.15387066       5.54239163  T        0
O        7.73908541       6.54964337       3.08615592  T        0
O        7.10378161       2.47903510       3.24336245  T        0
O       17.89930469       3.51750843       3.25379297  T        0
O       15.98753325       4.99239613       4.41275260  T        0
Al       8.32889926       1.13976685       8.92615969  T        0
Si       8.48730633       8.79922873       9.14481395  T        0
Si       6.21393149       0.50897593      11.29207375  T        0
Si      16.51681055       0.59464021       8.89587546  T        0
Si      15.68594184       1.10656650       5.83126358  T        0
Si      12.65798529       8.86884420       5.72774751  T        0
Si      12.48089439       1.12432792       6.01568306  T        0
Si      11.62536345       9.36949674       8.73064771  T        0
Si      11.48854142       0.65210828       9.08571328  T        0
Si      14.24151480       8.80455816      10.34062563  T        0
Si      14.07830333       1.36540427      10.83703962  T        0
Al      11.44108039       3.23799787       3.77084029  T        0
Si      11.62907686       6.57568579       3.94220562  T        0
Si      14.00222659       2.26133559       2.04607170  T        0
Si      14.72955561       3.59334463      12.94848710  T        0
Si      14.83100411       6.80368827      12.77373155  T        0
Si       7.47940258       6.74335632       6.90683066  T        0
Si       7.52016380       3.55068080       6.82894752  T        0
Si       8.59316524       7.57573858       4.04594921  T        0
Si       8.48257811       2.29266122       4.11898448  T        0
Si      16.36704219       3.47682938       3.86842348  T        0
O       13.71104328       3.31246098      14.20856106  T        0
O       13.79408560       7.50695242      13.84179819  T        0
O       10.04551653      -1.31103197       3.77067021  T        0
O       12.57480215      -1.49929068       2.88816041  T        0
O       11.68038267      -2.84403110       5.07693853  T        0
O       12.04572554      -0.13770602       5.10517372  T        0
O       13.73101032      -1.31796478       0.49717001  T        0
O        5.81066641      -1.08601813      11.07161581  T        0
O       16.71941930      -0.96979524       9.38935089  T        0
O       15.24211159      -1.60882848       2.73261130  T        0
O        5.79476969      -1.14785009       6.64399243  T        0
O       14.22153779       0.27893762      12.06744653  T        0
O        7.41283415      -2.72191021       8.04917990  T        0
O        8.15081905      -1.64982766       5.65523238  T        0
O        7.52107121      -1.37134742       3.03863269  T        0
O       17.86140547      -1.46929006       3.48352716  T        0
O       11.02012814      -0.87933958       9.45505192  T        0
O       16.30430488      -2.83670181       4.93648020  T        0
Si      11.60693394      -1.44451940       4.20947644  T        0
Si      13.88921851      -0.92241491       2.08523478  T        0
Si       7.37632468      -1.37663153       7.07471823  T        0
Si       8.52993537      -0.90104811       4.24798099  T        0
Si      16.29792126      -1.49681269       3.98059360  T        0
H        7.07153747       8.87866318      10.98534327  F        0
H       18.28958667       1.43588107      10.15436837  F        0
H        7.75914502      10.43742179       7.68600442  F        0
H       11.77602644      10.74421016       4.43990149  F        0
H        6.01931354       0.95312461      13.59787507  F        0
H        4.52133035       1.34033226      10.00226603  F        0
H       16.04398914       8.93133647       8.84225548  F        0
H       15.03932990       8.88569483       5.99268334  F        0
H       14.37509523      10.52815797      11.91539967  F        0
H        8.57917776       9.96978004       4.04186183  F        0
H       11.43576677      11.60834527       9.31342917  F        0
H       13.35632228       7.06085325       2.51220488  F        0
H       14.23421140       3.11626372      -0.07819396  F        0
H        5.18772305       6.48136951       6.94399129  F        0
H        5.18772305       3.38398261       6.94399129  F        0
H       17.11292418       3.38174117      13.10695602  F        0
H       17.11292418       6.48361095      13.10695602  F        0
H        6.78202892       6.52695113       2.93525138  F        0
H        6.78202891       3.33840099       2.93525138  F        0
H       18.37141861       2.74226592       2.89672377  F        0
H       16.04230866       5.86222357       3.96597143  F        0
H       13.73584752       2.53683452      14.79637726  F        0
H       13.73584752       7.32851760      14.79637726  F        0
H       12.25872462      -3.14188650       5.79628408  F        0
H       14.08297195      -0.95342037      -0.34490676  F        0
H        6.45001594      -1.80559776      10.93294989  F        0
H       16.50115869      -1.80559776       8.94650256  F        0
H        5.06295559      -0.97995304       7.26028496  F        0
H       14.37509522      -0.66310164      11.91539968  F        0
H        8.21123678      -3.04022255       8.50458507  F        0
H        6.55301950      -1.44431996       3.13509397  F        0
H       18.17502403      -1.06794529       2.66186474  F        0
H       11.43576677      -1.74328893       9.31342918  F        0
H       15.58652088      -3.08990418       5.53385776  F        0
Fe      10.02169892       3.45528451       8.63433565  T        0
Fe      11.81590741       4.45867831       6.32060800  T        1
O       11.91837572       4.17816340       8.30609197  T        2
O       10.81766525       5.16704706       7.98397815  T        3
