144
Lattice="19.123 0.0 0.0 0.0 14.277 0.0 0.0 0.0 7.5465" Properties=species:S:1:pos:R:3:move_mask:L:1:tags:I:1 i=128 E=-2603.9155142701 regions="_JSON [\"Active\"]" n_terminators=34 energy=-968.9245291197573 pbc="F F F"
O        6.05175892       1.10657038       1.43411113  T        0
O       15.64083839       8.44179909       5.86475081  T        0
O        3.27433554       8.54256136       5.96411377  T        0
O        5.86034209      13.18557327       1.34017734  T        0
O       15.94754231       5.82675466       5.67777015  T        0
O       12.93694760      13.10243627       1.62996053  T        0
O        3.31880464       5.82290524       5.88772287  T        0
O       13.20749545      13.18821732       6.18009904  T        0
O        3.51658252       5.78002996       1.74254794  T        0
O        6.16105230      13.12118739       5.96577897  T        0
O       15.90510727       5.78671401       1.69933118  T        0
O        3.42620376       8.45770745       1.72157739  T        0
O        5.96976296       1.14446756       6.11793028  T        0
O       15.63728103       8.44942724       1.71873211  T        0
O        7.25559878       3.34517108       2.45269608  T        0
O       17.22483121      10.60667463       6.18714927  T        0
O       11.58745464       3.29598396       2.34248895  T        0
O        2.05989763      10.96070041       6.08118328  T        0
O        7.32207381      11.08008353       2.36407473  T        0
O       11.79595249      10.68671208       2.09725128  T        0
O        1.97063052       3.48186193       6.07985468  T        0
O       12.07142845      11.00618705       4.99324127  T        0
O        1.97947454       3.57547653       1.40786819  T        0
O        7.32371382      10.84554049       5.04613177  T        0
O       11.63777686       3.18648151       5.08471828  T        0
O        2.15666601      10.80652361       1.34119589  T        0
O        7.24383758       3.33439295       5.07087202  T        0
O       17.13517068      10.68348321       1.40324229  T        0
O        6.61724234       3.28183928      -0.04785632  T        0
O       16.12709813      10.07664121       3.80038683  T        0
O        3.03606281      10.12747106       3.78631333  T        0
O        6.46381500      11.20751368      -0.17730086  T        0
O       12.84448777      11.22226273      -0.25358886  T        0
O        3.01866837       4.16695023       3.78111981  T        0
O        4.64344869       3.35469867       1.81114329  T        0
O       14.59210092      10.91542588       5.84380028  T        0
O        4.73024329      10.81561306       5.71777182  T        0
O        4.77090863      10.74103236       1.85811235  T        0
O       14.47692260      10.87232216       1.86406827  T        0
O        4.66411403       3.48838590       5.76933682  T        0
O       11.71487626       8.32183702       3.76177279  T        0
O        7.45364629       8.64116140       3.44874628  T        0
O        1.80063090      13.13772228      -0.03954633  T        0
O       11.67135579       5.60084169       3.79281132  T        0
O        7.47853862       5.68061911       3.75477097  T        0
O        9.55624301      10.26310536       3.48729042  T        0
O       -0.03106022      11.15815328      -0.24459721  T        0
O        9.51636148       3.97083106       3.76858227  T        0
O       13.54397218       6.91354838       5.12165336  T        0
O        5.38444751       7.27633094       5.00916872  T        0
O        5.78633111       7.21981099       2.06114156  T        0
O       13.55222092       6.89378399       2.45353891  T        0
O       14.18411071       7.02739768      -0.05818126  T        0
O        4.66054999       7.13134031      -0.27004542  T        0
Si       6.12915099       2.76211980       1.44073046  T        0
Si      15.88089719      10.00963762       5.43247629  T        0
Si       3.28864697      10.08522130       5.41190638  T        0
Si       6.09614979      11.55452242       1.37395111  T        0
Si      13.05892079      11.48080479       1.35332497  T        0
Si       3.26472600       4.25049905       5.40481360  T        0
Si      13.09453379      11.53224022       6.12539997  T        0
Si       3.29786222       4.20466381       2.17347672  T        0
Si       6.18440365      11.46819030       6.07545146  T        0
Si       3.32684163      10.03279659       2.18192796  T        0
Si       6.11303344       2.79651790       6.11204605  T        0
Si      15.84602721      10.01206554       2.18689281  T        0
Al      11.34481610      10.02402915       3.79421499  T        0
Si       7.91061273      10.20877934       3.65894371  T        0
Si       1.56115093      11.49531918      -0.04355673  T        0
Si      11.14988577       4.04238254       3.75495287  T        0
Si       7.88239103       4.11585790       3.77067428  T        0
Si      14.85962459       7.01550852       6.07635328  T        0
Si       4.22307364       7.18763686       6.11414612  T        0
Si       4.30483682       7.13393308       1.32553613  T        0
Si      14.83431478       7.03152023       1.46802438  T        0
Si      12.59017709       6.95996106       3.78872793  T        0
Al       6.52683795       7.11578580       3.75767941  T        0
O        6.66037020       3.24701720       7.59552033  T        0
O        6.69825092      11.07218572       7.59008788  T        0
O       12.50361761      11.03199244       7.58203214  T        0
O       14.27880927       6.83808845       7.61189327  T        0
O        4.93688501       7.17632766       7.60302216  T        0
O        3.44791492       8.47191811      -2.21264890  T        0
O        3.21344522       5.85142459      -2.19698852  T        0
O       12.89567382      13.03076054      -2.30546107  T        0
O        6.28760496      13.04810034      -2.20730602  T        0
O        2.30484739      10.76119574      -1.31269330  T        0
O        7.55573216      10.81733011      -5.35288437  T        0
O       11.92526656      10.33292453      -5.39266199  T        0
O       12.00740460      10.59857005      -2.69369638  T        0
O        7.40792625      10.72705681      -2.62291157  T        0
O        2.75874667      10.43879053      -3.89855791  T        0
O       14.68554442      11.10485571      -2.25743685  T        0
O        4.79740754      10.77549008      -2.18622831  T        0
O       11.33939560       8.21923321      -3.82750999  T        0
O        7.44189610       8.46262031      -4.01613990  T        0
O        7.79638080       5.87141325      -3.93184396  T        0
O        9.62899828      10.11266729      -3.92824742  T        0
O        5.63137419       6.98163051      -2.71224168  T        0
O        5.76964480       6.82995774      -5.41147966  T        0
Si       3.32890830      10.10044305      -2.38862284  T        0
Si      13.11471244      11.46088033      -1.86178931  T        0
Si       6.22100359      11.45750099      -1.79008573  T        0
Si      11.24807077       9.85507094      -3.96250705  T        0
Si       7.99578527      10.01178314      -3.98013212  T        0
Si       4.24765327       7.09270249      -1.85606196  T        0
Si       6.63826525       7.03674578      -4.01335464  T        0
H        5.61083456       0.52083913       2.07985367  F        0
H        5.61112307      13.75835362       2.07975607  F        0
H       15.75636517       4.89339805       5.45628994  F        0
H       13.50958039      13.75682243       2.07498241  F        0
H       13.51084140      13.75504172       5.44776650  F        0
H        5.62495998      13.75277707       5.44935724  F        0
H       15.75706449       4.89440344       2.08043705  F        0
H        5.62509051       0.52255101       5.44942550  F        0
H       17.28974254      11.12548174       7.01862795  F        0
H       12.44565577       3.15588527       1.90033815  F        0
H        1.83343022      11.12554006       7.01950242  F        0
H        1.81954193       3.15353441       6.98813474  F        0
H        1.83183800       3.14857954       0.53722786  F        0
H       12.44354748       3.15657450       5.63339447  F        0
H       17.29120144      11.12876736       0.54010345  F        0
H        6.35952436       2.97904956      -0.93427223  F        0
H        2.56257806      13.76129914       0.00087584  F        0
H       -0.96427299      11.34215683       0.00103770  F        0
H       14.60982961       7.13673871      -0.92783774  F        0
H        6.35949513       2.97597070       8.47938261  F        0
H        6.35946036      11.30224636       8.48133548  F        0
H       12.76333233      11.30075111       8.47967776  F        0
H       14.61405599       7.13800201       8.47661577  F        0
H        4.50898861       7.14016697       8.47499567  F        0
H        3.36064390       4.89097090      -2.09366187  F        0
H       13.51084140      13.75504172      -2.09873350  F        0
H        5.62495998      13.75277707      -2.09714276  F        0
H        6.67686405      11.12256578      -5.64493030  F        0
H       12.44599272      11.12072140      -5.64644730  F        0
H        3.19736723      10.11759060      -4.70766930  F        0
H       15.19994748      10.29594087      -2.09275354  F        0
H       12.12595522       7.65409943      -3.78385824  F        0
H        7.80677964       4.90364681      -3.78479629  F        0
H        4.87243006       7.14046961      -5.64294599  F        0
Fe      10.06891675       9.93975014       1.35596992  T        0
Fe       7.37619330       8.20977528       1.30839808  T        1
O        8.86543805       8.87933577       0.51047189  T        2
