145
Lattice="19.123 0.0 0.0 0.0 14.277 0.0 0.0 0.0 7.5465" Properties=species:S:1:pos:R:3:move_mask:L:1:tags:I:1 i=128 E=-2603.9155142701 regions="_JSON [\"Active\"]" n_terminators=30 energy=-999.3646536375244 pbc="F F F"
O       15.59585484       8.31811116       5.71035786  T        0
O       12.93690376       1.06953594       1.51798539  T        0
O       15.64889055       5.90985881       5.23540746  T        0
O       13.25099850      12.94902314       1.87990325  T        0
O       12.96158921      13.03776976       5.63068153  T        0
O       15.64186997       5.66560354       1.97728255  T        0
O       12.82416099       1.20404278       5.34626023  T        0
O       15.76393658       8.18333828       1.92250899  T        0
O       17.21278679      10.73797137       6.26396437  T        0
O       11.87562182       3.43294468       2.44627311  T        0
O       17.07613058       3.48681517       6.35254791  T        0
O       11.88066657      10.71997181       2.43704165  T        0
O       11.68075523      10.74422890       5.12344078  T        0
O       17.05656383       3.50588214       1.18503799  T        0
O       11.61066064       3.48316727       5.12807526  T        0
O       17.07656311      10.53999926       1.24905127  T        0
O       16.33618880       9.77990034       3.70726339  T        0
O       12.52229645       3.01956198      -0.13284536  T        0
O       16.19457635       3.69180746       3.65812071  T        0
O       12.74152420      11.20050296      -0.07905836  T        0
O       14.31806411      10.79629176       5.58232097  T        0
O       14.42849650       3.32241371       1.65568392  T        0
O       14.22528643       3.51529590       5.78022415  T        0
O       14.46140374      10.55585303       1.83466694  T        0
O       11.47311627       8.43532568       3.76005046  T        0
O       17.36563501       1.07513152      -0.03863950  T        0
O       11.45093494       5.75153688       3.72887987  T        0
O       17.02667446      12.92952958      -0.01805006  T        0
O        9.51568341      10.32315872       3.50696121  T        0
O        9.48190829       3.90283644       3.45551899  T        0
O       13.24634163       7.08633186       5.22001087  T        0
O       13.43236998       7.08590136       2.53277592  T        0
O       14.30588794       6.97884351      -0.02299795  T        0
Al      15.86143031      10.07914257       5.42208433  T        0
Si      12.92976001       2.71282325       1.41984823  T        0
Al      15.80810043       4.06009187       5.31061330  T        0
Si      13.05674444      11.37098838       1.51799947  T        0
Si      12.90422751      11.43944514       5.99438197  T        0
Si      15.82952643       3.99553570       2.14420693  T        0
Si      12.82699412       2.74606309       5.97616765  T        0
Si      15.89437713       9.87890881       2.14291647  T        0
Si      11.12118226      10.05138650       3.74256016  T        0
Si      17.59651872       2.71363939      -0.14536907  T        0
Si      11.09298241       4.13307064       3.71688813  T        0
Si      17.55110976      11.37458221      -0.11029838  T        0
Si      14.66621730       6.98914533       6.03301871  T        0
Si      14.70381599       6.92644988       1.53293737  T        0
Si      12.37954841       7.08114852       3.81925954  T        0
O       19.21503634       2.95072957       8.00111105  T        0
O       19.21823325      11.43852896       8.00292687  T        0
O       19.19575877       2.99567564      -0.41626191  T        0
O       19.16874431      11.24496293      -0.34695114  T        0
O       12.84383522      15.67461957       9.71556266  T        0
O       17.35943127      15.53867540       7.49058628  T        0
O       15.19725577      14.60872845       8.86427327  T        0
O       14.54493112      14.36477034      11.38775767  T        0
Si      13.91099278      14.42176554       9.85951728  T        0
Si      16.19008350      14.38002638       7.57522506  T        0
O       12.87393800      15.54513065       1.62405182  T        0
O       12.82366697      15.56085370       5.93304973  T        0
O       17.38300833      15.53725220      -0.10286017  T        0
O       15.35899454      14.50572690       1.37261146  T        0
O       15.25622416      14.37241424       6.21524196  T        0
O       14.20947028      14.56894440       3.78960939  T        0
Si      13.93242031      14.40550309       2.18400005  T        0
Si      13.84106366      14.38403659       5.38694503  T        0
Si      16.22184650      14.36793420      -0.02075759  T        0
O       12.85481643      15.63180103      -2.10501002  T        0
O       15.20011596      14.45196440      -1.30555909  T        0
O       14.52763127      14.35508786      -3.85073881  T        0
Si      13.90527176      14.37818372      -2.31520922  T        0
O       12.80066851       1.17498095       9.76972891  T        0
O       13.09864156      13.03631476       9.52521877  T        0
O       15.56378534       5.69531773       9.76856928  T        0
O       15.52163351       8.34085303       9.52656045  T        0
O       11.49865665       3.50092650       9.92781492  T        0
O       11.55793616      10.89023140      10.01735744  T        0
O       16.81081862       3.39344454       8.97579722  T        0
O       16.82869326      10.60207512       8.87574119  T        0
O       16.33199629      10.16151745      11.36856226  T        0
O       12.44105440       2.72939071       7.58125155  T        0
O       16.02625135       3.62256247      11.44813379  T        0
O       12.61228860      11.24729384       7.60468324  T        0
O       14.18902902       3.46352037       9.47722476  T        0
O       14.23783476      10.63409321       9.67816142  T        0
O       17.35903018       1.07481302       7.65520693  T        0
O       17.00639911      12.97906030       7.70937946  T        0
O       13.15951428       7.00735906       9.84688983  T        0
O       14.43756782       6.77644154       7.61189743  T        0
Si      12.75812736       2.72951715       9.18978270  T        0
Si      12.88945768      11.43958773       9.21102109  T        0
Si      15.65323169       4.04942326       9.90055515  T        0
Si      15.71487447       9.94744289       9.85837869  T        0
Si      17.60315658       2.72941181       7.68021882  T        0
Si      17.59746141      11.43912778       7.67431551  T        0
Si      14.69051919       6.96822147       9.22941268  T        0
O       15.50880915       8.34572655      -1.98160828  T        0
O       15.52303285       5.69326434      -2.02981447  T        0
O       13.04441324      13.00754965      -2.02868773  T        0
O       12.76148116       1.14511448      -2.11239254  T        0
O       16.80122180      10.61817338      -1.35156559  T        0
O       16.75643752       3.35501362      -1.40084368  T        0
O       11.55753439      10.77486852      -2.40801693  T        0
O       11.46199319       3.41938212      -2.45929032  T        0
O       16.37440905      10.09668771      -3.84838967  T        0
O       16.29500533       3.84887175      -3.86701663  T        0
O       14.25193023      10.65362382      -2.24531607  T        0
O       14.19017328       3.42000161      -2.20820024  T        0
O       13.13690421       7.00370854      -2.31200796  T        0
Si      15.71405034       9.93639675      -2.35445498  T        0
Si      15.67244594       4.08568132      -2.36499888  T        0
Si      12.90439106      11.40891738      -1.70223052  T        0
Si      12.77180527       2.75104573      -1.72952619  T        0
Si      14.63928229       7.00813512      -1.63818292  T        0
H       13.50938118       0.51971906       2.07492992  F        0
H       13.50975252       0.52161770       5.44778410  F        0
H       16.56036088       0.51548555      -0.00076213  F        0
H        8.59739021      10.07362933       3.76217937  F        0
H        8.59637561       4.20354031       3.76204115  F        0
H       20.08726577       2.93486642       7.54597012  F        0
H       20.08739461      11.34211663       7.54749186  F        0
H       20.08726577       2.93486642      -0.00052988  F        0
H       20.08739461      11.34211663       0.00099186  F        0
H       12.92965576      16.51835623       9.23229795  F        0
H       17.37010602      16.51224957       7.54725802  F        0
H       14.07270598      14.27710018      12.23669175  F        0
H       12.92965576      16.51835623       1.68579795  F        0
H       12.92837698      16.51830622       5.84502133  F        0
H       17.37010602      16.51224957       0.00075802  F        0
H       12.92837698      16.51830622      -1.70147867  F        0
H       14.07160463      14.27684057      -4.71417255  F        0
H       13.50938118       0.51971906       9.62142992  F        0
H       11.39369377       3.98884644      10.77146895  F        0
H       11.39439525      10.28733182      10.77116771  F        0
H       15.92688062      10.11457984      12.25007275  F        0
H       15.92754156       4.15729643      12.25107281  F        0
H       16.56036088       0.51548555       7.54573787  F        0
H       12.88235039       7.13795337      10.76981689  F        0
H       13.50975252       0.52161770      -2.09871590  F        0
H       11.39521725      10.28762784      -3.24237523  F        0
H       11.39412799       3.98861071      -3.24188863  F        0
H       15.92569105      10.11584057      -4.70878458  F        0
H       15.92661844       4.15901570      -4.70770176  F        0
H       12.88191441       7.13773895      -3.23957932  F        0
Fe      16.20475511       7.52664036       3.91636787  T        1
