138
Lattice="24.397 0.0 0.0 0.0 24.397 0.0 0.0 0.0 24.397" Properties=species:S:1:pos:R:3:move_mask:L:1:tags:I:1 i=41 E=-6943.8331748197 regions="_JSON [\"Active\"]" n_terminators=32 energy=-931.7858630722243 pbc="F F F"
O       21.65497648       2.59659869       0.06810050  T        0
O       21.89382406       6.20834611       3.48786524  T        0
O       15.54686626       9.69468282       6.25459948  T        0
O       21.00313561      12.45607972       3.53100453  T        0
O       20.82299318       3.63760972      12.34519691  T        0
O       15.68806193       6.22756157       9.80562417  T        0
O       21.85313363      -0.03132702       2.53379002  T        0
O       18.38627985       9.64179330       3.32614032  T        0
O       21.79625240       3.52581101       5.93344923  T        0
O       18.27043516       3.56813233       9.80935849  T        0
O       23.74765543       1.70994399       1.77464056  T        0
O       22.82650966       5.39091553       8.00828646  T        0
O       22.63063703       7.99705987       5.35898777  T        0
O       17.61454620      10.57556144       7.83961094  T        0
O       20.07784816      10.57731497       5.22773663  T        0
O       18.86773622       4.26035196      14.15143034  T        0
O       16.27321882       4.17494158      11.48297041  T        0
O       23.65651382       4.29243628       4.22760388  T        0
O       17.68564203       7.91863853      10.50522143  T        0
O       20.15694166       5.37323342      10.47173507  T        0
O       20.86800990       5.96433249       5.84477787  T        0
O       18.12174034       8.90669512       5.92818416  T        0
O       21.98262819      12.30205979       6.08864146  T        0
O       18.29547251       2.59817468      12.28192191  T        0
O       14.59948446       6.14292843      12.28308461  T        0
O       20.96703630       0.01842170       0.01215609  T        0
O       24.33769016       2.67521416       6.27316521  T        0
O       24.41196908       6.24912906       2.57023729  T        0
O       18.17227907       6.03225490       8.80554183  T        0
O       22.01775664       6.08193628      12.33239540  T        0
O       22.65114672       4.36798186       1.75288207  T        0
O       16.57891972       1.68073020      10.41049240  T        0
O       22.67249114       4.37704372      10.50045395  T        0
O       20.12807805       8.03704258       4.36758977  T        0
O       16.60151761       8.04599810       8.01317155  T        0
O       22.63517822      10.48199698       4.37240917  T        0
O       20.20281536       1.82851950      14.07396522  T        0
O       13.80730468       4.42497881      10.41454462  T        0
O       22.81359575       1.73757669       4.27433806  T        0
O       20.04928480       4.34866533       8.00569205  T        0
Al      23.33032269       3.02317490       0.73783933  T        0
Si      23.67265962       4.87661708       9.29434705  T        0
Si      21.39218473       7.10751046       4.79195727  T        0
Si      16.96165224       9.30061406       7.01760438  T        0
Si      21.39010259      11.47465390       4.80218957  T        0
Si      19.55249565       3.07675935      13.21884746  T        0
Si      15.11732139       5.23981708      11.00106853  T        0
Si      23.21827765       0.79088151       2.98754476  T        0
Si      19.16468694       9.30910828       4.74017176  T        0
Al      21.45076710       4.84469636       7.14578446  T        0
Si      23.59197657       9.25557023       4.87961909  T        0
Si      17.33469621       3.00909245      11.01645377  T        0
Si      23.18833246       3.03182210       5.18701887  T        0
Si      19.17397660       4.81931514       9.27033237  T        0
Si      23.18388633       5.28209748       3.01430814  T        0
Si      21.39902237       4.86646579      11.41650565  T        0
Si      17.00704518       7.05715368       9.27009438  T        0
O       24.62263962       3.62025233       8.79212954  T        0
O       24.55208456       8.71512710       3.65896502  T        0
O       26.31302285       6.71961533       4.25688515  T        0
O       26.34440053       4.21945875       6.72475838  T        0
O       24.48118500       9.81418835       6.14056069  T        0
O       24.62913832       6.06618312       9.92222561  T        0
O       26.29395213       8.04911863       1.82358862  T        0
O       26.21939664       1.75981636       8.00603748  T        0
Si      25.41733355       7.44584726       3.07796142  T        0
Si      25.40071199       3.07982178       7.46223361  T        0
O       24.70203231       2.41731040      -2.83023104  T        0
O       26.24774463       1.80859135      -0.69012779  T        0
O       24.34085577      -0.16447085      -3.56960184  T        0
O       26.51268274       4.18852118      -2.06797569  T        0
Si      25.47851764       3.02857896      -1.50255308  T        0
O       24.61131626      -2.70531380       2.41894254  T        0
O       26.31334311      -0.64196992       1.85680381  T        0
O       24.45032907      -3.70842304      -0.08175112  T        0
O       26.31599458      -1.97900008       4.27421876  T        0
Si      25.41863536      -1.40332245       3.01561687  T        0
O       17.97894036       2.44104042      -3.43049794  T        0
O       20.99711927       2.52708469      -6.38266384  T        0
O       19.98555059       0.95876811      -4.46939974  T        0
O       22.67677284       1.01536007      -1.79303041  T        0
O       24.42588171       3.61594822      -0.43019532  T        0
O       18.35672415      -0.12962636      -2.60247436  T        0
O       21.89164689      -0.05931017      -6.11148373  T        0
O       20.05997403       1.68489788      -1.88792610  T        0
O       22.58959970       1.68471607      -4.35835663  T        0
Si      19.07932911       1.24200922      -3.13483215  T        0
Si      21.34011382       1.28211611      -5.34482153  T        0
Si      23.60001894       1.24238411      -3.14238349  T        0
Si      21.32468549       1.29720692      -0.93060524  T        0
O       18.01471285      -3.42966689       2.45838938  T        0
O       21.00032436      -6.41002701       2.51911214  T        0
O       22.64514894      -1.89520831       0.79187026  T        0
O       20.00640997      -4.47221829       0.96499856  T        0
O       24.35629962      -0.26351562       3.50573325  T        0
O       18.36387783      -2.62138093      -0.12788474  T        0
O       21.90604456      -6.12051723      -0.05437443  T        0
O       20.09903704      -1.88885306       1.67017570  T        0
O       22.61178049      -4.38782520       1.71228465  T        0
Si      21.38613946      -0.96133200       1.26040726  T        0
Si      21.35261030      -5.35718330       1.28964495  T        0
Si      23.59233781      -3.16969452       1.21486346  T        0
Si      19.10420509      -3.13142191       1.24680658  T        0
H       15.43757914      10.38640764       5.57209357  F        0
H       20.10951523      12.72546585       3.23923157  F        0
H       17.77043279      10.38640226       3.23924444  F        0
H       17.22544067      10.92750153       8.65411313  F        0
H       19.36965545       4.82834000      14.75328662  F        0
H       17.22544070       8.65411150      10.92750362  F        0
H       21.54216027      12.99764967       6.60187561  F        0
H       15.05290857       6.89848394      12.70105939  F        0
H       21.54216028       6.60187434      12.99765198  F        0
H       15.76397057       1.24433790      10.70999951  F        0
H       19.78591983       1.24430349      14.73192035  F        0
H       13.44269039       3.56560577      10.71001015  F        0
H       26.95194123       7.17131746       4.82834527  F        0
H       26.95194124       4.82834452       7.17131883  F        0
H       25.19630608       9.34383456       6.60185911  F        0
H       25.19630604       6.60185806       9.34383627  F        0
H       26.93058105       7.58756876       1.24433203  F        0
H       26.93058086       1.24433163       7.58757011  F        0
H       26.95192867       1.27083937      -1.07240246  F        0
H       25.19622735      -0.50276655      -3.24494277  F        0
H       26.93057835       4.85486043      -1.48866112  F        0
H       26.95192866      -1.07240650       1.27083969  F        0
H       25.19622853      -3.24494603      -0.50276481  F        0
H       26.93057847      -1.48866524       4.85486109  F        0
H       17.77043356       2.85994955      -4.28747201  F        0
H       20.10952426       2.85994950      -6.62656333  F        0
H       17.49833355      -0.50278089      -2.85477948  F        0
H       21.54221652      -0.50278066      -6.89866328  F        0
H       17.77043326      -4.28747560       2.85995000  F        0
H       20.10952426      -6.62656664       2.85995001  F        0
H       17.49833238      -2.85478383      -0.50277915  F        0
H       21.54221602      -6.89866750      -0.50277915  F        0
Fe      20.38127535       4.31250150       4.62360638  T        0
Fe      20.73614401       3.44761112       1.62794587  T        1
O       19.66885870       3.70202748       3.06995860  T        2
