145
Lattice="19.123 0.0 0.0 0.0 14.277 0.0 0.0 0.0 7.5465" Properties=species:S:1:pos:R:3:move_mask:L:1:tags:I:1 i=128 E=-2603.9155142701 regions="_JSON [\"Active\"]" n_terminators=34 energy=-981.1351441934459 pbc="F F F"
O        6.19662332       1.15653756       1.62559147  T        0
O       15.62668699       8.47742431       5.85454691  T        0
O       12.92273098       1.15241476       1.61532119  T        0
O        3.39351324       8.46688090       5.73412755  T        0
O        6.23951627      13.01914767       2.15804715  T        0
O       15.63208981       5.78886332       5.86104323  T        0
O       12.91713588      13.12034978       1.62775414  T        0
O        3.41731442       5.76568044       5.71927768  T        0
O       12.93467683      13.12623588       5.92578759  T        0
O        3.41699655       5.77372913       1.84776129  T        0
O        6.08603552      13.12506810       6.04014700  T        0
O       15.63116894       5.79249098       1.69991455  T        0
O       12.92612520       1.14680150       5.92133212  T        0
O        3.40767555       8.47176882       1.78019133  T        0
O        6.17458703       1.14509097       5.96292246  T        0
O       15.62653594       8.48210779       1.69689161  T        0
O        7.18707240       3.55255846       2.45503821  T        0
O       17.14279894      10.71273571       6.13915172  T        0
O       11.88021290       3.53040030       2.45448481  T        0
O        1.94182353      10.72356525       6.13418820  T        0
O        7.28296782      10.64218865       2.36732552  T        0
O       17.13044348       3.53940848       6.13722540  T        0
O       11.88040171      10.73716925       2.45389599  T        0
O        1.94739378       3.51764681       6.09146662  T        0
O       11.90559740      10.73824488       5.09040356  T        0
O        1.95539079       3.52419890       1.43090533  T        0
O        7.15384743      10.79236354       5.03205379  T        0
O       17.13221099       3.54433606       1.42476139  T        0
O       11.88101840       3.52660721       5.09174364  T        0
O        2.07835082      10.78337184       1.33591708  T        0
O        7.18467075       3.52509653       5.08698024  T        0
O       17.13294892      10.72713845       1.42274214  T        0
O        6.71488059       3.18926830      -0.05225678  T        0
O       16.06649949      10.12190718       3.77906147  T        0
O       12.43590899       3.21134346      -0.04420183  T        0
O        3.00754645      10.22580875       3.77394078  T        0
O        6.47818292      11.44705708      -0.06896667  T        0
O       16.06341217       4.14687017       3.77981621  T        0
O       12.44225399      11.06309314      -0.04270257  T        0
O        3.08080862       3.96795428       3.76981952  T        0
O        4.62365950       3.36352954       1.67454916  T        0
O       14.48702912      10.92103036       5.78629185  T        0
O       14.47083458       3.35971123       1.77973126  T        0
O        4.60865428      10.86811913       5.82211460  T        0
O        4.67918287      10.83557276       1.78755134  T        0
O       14.46983808       3.35775526       5.77726425  T        0
O       14.47301405      10.91805421       1.78410312  T        0
O        4.62054937       3.35856934       5.86467313  T        0
O       11.15989480       8.45539457       3.78055308  T        0
O        7.89630202       8.44975319       3.82807640  T        0
O        1.81276587      13.12625539      -0.06052984  T        0
O       11.15343215       5.81124905       3.77728002  T        0
O        7.88817512       5.81867700       3.79985413  T        0
O        9.54526186      10.51470857       3.80565537  T        0
O       -0.04422907      11.21092628      -0.33009486  T        0
O        9.53158599       3.75391202       3.77449114  T        0
O       13.38872654       7.12587182       5.19298944  T        0
O        5.67425376       7.13439961       5.28312527  T        0
O        5.65848243       7.14963945       2.37493434  T        0
O       13.38742015       7.13292148       2.35802355  T        0
O       14.10043283       7.13280790      -0.10624614  T        0
O        4.62971014       7.04294821      -0.11029240  T        0
Si       6.13971211       2.80082411       1.43920019  T        0
Si      15.82199446      10.04192176       5.40366570  T        0
Si      12.96918651       2.80214531       1.45895390  T        0
Si       3.25249283      10.05711789       5.38455674  T        0
Si       6.14855887      11.48687042       1.53522366  T        0
Si      15.81568221       4.22460043       5.40408487  T        0
Si      12.96988249      11.47146328       1.46220372  T        0
Si       3.28017720       4.17432155       5.37796827  T        0
Si      12.98174005      11.47747090       6.08974561  T        0
Si       3.28119271       4.17716570       2.16136703  T        0
Si       6.10099184      11.47338622       6.10050439  T        0
Si      15.81553401       4.22773661       2.15572948  T        0
Si      12.96788456       2.79567479       6.08738111  T        0
Si       3.28913744      10.05558710       2.17078324  T        0
Si       6.13373483       2.79282886       6.11153626  T        0
Si      15.81602661      10.04550284       2.15513491  T        0
Si      11.14316991      10.13388827       3.78059178  T        0
Si       7.95162137      10.12662155       3.77072825  T        0
Si       1.55975591      11.48023008      -0.06856746  T        0
Si      11.13133013       4.13254082       3.77436757  T        0
Si       7.93672188       4.14193380       3.77847563  T        0
Si      14.69868984       7.13207145       6.12155146  T        0
Si       4.27473897       7.12235990       6.09267612  T        0
Si       4.30393479       7.11552485       1.49473606  T        0
Si      14.69907807       7.13545929       1.43150972  T        0
Al      12.43073930       7.13103951       3.77581374  T        0
Al       6.60182280       7.13842734       3.82286235  T        0
O        3.42945323       5.83783746       9.89977550  T        0
O        3.39066984       8.43161161       9.86260262  T        0
O        6.70891953       3.19769733       7.59829559  T        0
O       12.42681134       3.19419123       7.59055273  T        0
O        6.66251722      11.04111875       7.58945092  T        0
O       12.43369327      11.07695974       7.58957221  T        0
O        5.85243511       7.17259382       9.87706825  T        0
O       14.09847361       7.13419278       7.65898014  T        0
O        4.48850823       7.11576763       7.71574454  T        0
Si       4.29141575       7.13997524       9.32972873  T        0
O        3.61910438       8.45830588      -2.15206306  T        0
O        3.35370073       5.86029289      -2.22991764  T        0
O        6.31566620      13.07334037      -2.22195117  T        0
O        2.36499425      10.73582980      -1.29768458  T        0
O        7.58729072      10.72899962      -2.37707715  T        0
O        2.84549427      10.41816607      -3.84923160  T        0
O        4.89124110      10.78181754      -2.12468364  T        0
O        5.89256959       6.93061699      -2.35500078  T        0
Si       3.43194754      10.07656607      -2.34573170  T        0
Si       6.29194864      11.49876952      -1.70460807  T        0
Si       4.37278766       7.06421848      -1.71644586  T        0
H        5.61083456       0.52083913       2.07985367  F        0
H       13.50938118       0.51971906       2.07492992  F        0
H        5.61112307      13.75835362       2.07975607  F        0
H       13.50958039      13.75682243       2.07498241  F        0
H       13.51084140      13.75504172       5.44776650  F        0
H        5.62495998      13.75277707       5.44935724  F        0
H       13.50975252       0.52161770       5.44778410  F        0
H        5.62509051       0.52255101       5.44942550  F        0
H       17.28974254      11.12548174       7.01862795  F        0
H        1.83343022      11.12554006       7.01950242  F        0
H       17.28979000       3.14560285       7.02339196  F        0
H        1.81954193       3.15353441       6.98813474  F        0
H        1.83183800       3.14857954       0.53722786  F        0
H       17.29134854       3.14797220       0.53999843  F        0
H       17.29120144      11.12876736       0.54010345  F        0
H        6.35952436       2.97904956      -0.93427223  F        0
H       12.76076393       2.97683097      -0.93375646  F        0
H       12.76174962      11.29928001      -0.93393629  F        0
H        2.56257806      13.76129914       0.00087584  F        0
H       -0.96427299      11.34215683       0.00103770  F        0
H       14.60982961       7.13673871      -0.92783774  F        0
H        3.36661743       4.89904760       9.62155888  F        0
H        3.36626427       9.38386245       9.62662257  F        0
H        6.35949513       2.97597070       8.47938261  F        0
H       12.76321398       2.97604733       8.47995589  F        0
H        6.35946036      11.30224636       8.48133548  F        0
H       12.76333233      11.30075111       8.47967776  F        0
H        6.24001829       7.13882896      10.76907540  F        0
H       14.61405599       7.13800201       8.47661577  F        0
H        3.36064390       4.89097090      -2.09366187  F        0
H        5.62495998      13.75277707      -2.09714276  F        0
H        7.72914317      10.28615024      -3.24155184  F        0
H        3.19736723      10.11759060      -4.70766930  F        0
H        6.23944212       7.13797332      -3.24031999  F        0
Fe       9.52498106       7.13447582       3.79670760  T        1
