145
Lattice="20.102 0.0 0.0 0.0 19.731 0.0 0.0 0.0 13.253" Properties=species:S:1:pos:R:3:move_mask:L:1:tags:I:1 i=77 E=-3472.0240129048 regions="_JSON [\"Active\"]" n_terminators=28 energy=-1012.9937968336985 pbc="F F F"
O       10.04609125       8.40189124       9.57407602  T        0
O       10.05642113      11.32673517       3.67808115  T        0
O        1.96517472      11.11520603       4.04307292  T        0
O        7.52839414       8.77365165      10.41926897  T        0
O       18.13739049       8.61670786       9.21009623  T        0
O       12.57503022      10.95890333       2.83387737  T        0
O        8.00768040       7.14652132       8.39232330  T        0
O       12.09175357      12.58697753       4.85966222  T        0
O        8.37889442       9.77952946       8.08040335  T        0
O       11.72562664       9.95413431       5.17388049  T        0
O        3.42523904      10.69497657       6.21783090  T        0
O        6.63656128       8.97387930      12.85210914  T        0
O       16.67731496       9.03562116       7.03514289  T        0
O       13.46582825      10.75673466       0.40091213  T        0
O        3.37743519       8.86270870       4.27018125  T        0
O        6.15987540      10.93794623      11.03774043  T        0
O       16.72401830      10.86849023       8.98190011  T        0
O       13.94145688       8.79302479       2.21592923  T        0
O        4.68174443      11.18536703       3.98644252  T        0
O        4.89445177       8.61980111      10.80616464  T        0
O       15.42081100       8.54528899       9.26664565  T        0
O       15.20869249      11.11045699       2.44637698  T        0
O        4.15427533      12.43169248       8.11124419  T        0
O        6.06790958       7.30541678       1.29530121  T        0
O       15.94916205       7.29866744       5.14182354  T        0
O       14.03276618      12.42483183      11.95731970  T        0
O        5.95500442      10.67718853       7.11253986  T        0
O        3.87895805       8.35691152       0.23916986  T        0
O       14.14771589       9.05219107       6.14016585  T        0
O       16.22391082      11.37587359      13.01100250  T        0
O        3.96018915       9.88733180       8.68121686  T        0
O        5.38260970       9.83506155       1.88010419  T        0
O       16.14226299       9.84296472       4.57167583  T        0
O       14.71996688       9.89556359      11.37290361  T        0
O        7.88960662      12.39878780       7.77361368  T        0
O       12.21061039       7.33317566       5.47913068  T        0
O        8.39725448      10.71404489       5.80199980  T        0
O       11.70705543       9.01903081       7.45193410  T        0
O        7.20098898      11.34026131       3.14888905  T        0
O        2.38161344       8.16861258      10.00669611  T        0
O       12.90158870       8.39005893      10.10495506  T        0
O       17.72097134      11.56186827       3.24680188  T        0
O        8.66151143       8.85440154       3.76820796  T        0
O       11.43790440      10.87513571       9.48628819  T        0
O        5.09309807      12.52892265       1.84031556  T        0
O        4.38538004       7.25883761       8.54838417  T        0
O       15.00978121       7.20175026      11.41298935  T        0
O       15.71615427      12.47112391       4.70481312  T        0
O        9.93995681      13.09321966       9.38008863  T        0
O       10.16174765       6.63776840       3.87142881  T        0
O        2.30957151       6.43116053       3.82750165  T        0
O        7.43904815      13.15415930      10.25466627  T        0
O       17.79281088      13.29959019       9.42541529  T        0
O       12.66339992       6.57627744       2.99881828  T        0
O        8.20113331      14.90314840       8.34719224  T        0
O       11.89956246       4.82799905       4.90614678  T        0
O        3.67743323       6.86412277       6.00555360  T        0
O        6.53330114      13.10122248      12.64259929  T        0
O       16.42398598      12.86821203       7.24758665  T        0
O       13.56893885       6.63002763       0.61046654  T        0
O        4.98634266       6.84215417       3.68834137  T        0
O        4.75167578      13.11586139      10.63280675  T        0
O       15.11608292      12.88933731       9.56518559  T        0
O       15.35057706       6.61539669       2.62025668  T        0
O        4.08550057       4.80921604       7.73939912  T        0
O       16.01332648      14.92128154       5.51182423  T        0
O        6.12109716       6.25205798       6.74726254  T        0
O       13.97949807      13.47692910       6.50575979  T        0
O        8.38083863       4.83466966       7.11520812  T        0
O       11.71821632      14.89491275       6.14698587  T        0
O        8.44012960       7.19524529       5.80995494  T        0
O       11.66046226      12.53013062       7.44189040  T        0
O        7.57709070       6.42733406       3.37192635  T        0
O        2.18187746      13.28914956       9.82645345  T        0
O       12.52498686      13.30187450       9.87899894  T        0
O       17.92047355       6.44079609       3.42557440  T        0
O        3.97673244      14.92205940       8.75167051  T        0
O        5.85241933       4.80552066       2.12316347  T        0
O       16.12540592       4.80866730       4.50120164  T        0
O       14.24707400      14.92493487      11.13017063  T        0
Si       8.51056167       8.48621829       9.17080641  T        0
Si      11.59197053      11.24557672       4.08166737  T        0
Si       3.36926223      10.45939238       4.59969068  T        0
Si       6.28381612       9.33329180      11.29370118  T        0
Si      16.73303193       9.27164456       8.65318999  T        0
Si      13.81881927      10.39764547       1.95930428  T        0
Si       4.36768766      10.93605965       7.51480222  T        0
Si       5.42735506       8.70765191       0.72258500  T        0
Si      15.73503029       8.79417029       5.73812886  T        0
Si      14.67514443      11.02335912      12.53001120  T        0
Si       7.54680267      10.93388436       7.19553299  T        0
Si      12.55559019       8.79736373       6.05764892  T        0
Al       8.51164806      10.57615707       3.96600696  T        0
Al      11.59061280       9.15338326       9.28782528  T        0
Si       5.66762842      11.23265068       2.68341423  T        0
Si       3.91146125       8.48225471       9.50150337  T        0
Si      14.43512934       8.49788875      10.56981402  T        0
Si      16.19100678      11.24807423       3.75155440  T        0
Si       8.39889686      13.40029006       8.96552292  T        0
Si      11.70238651       6.33082143       4.28731119  T        0
Si       3.59757999       7.25961957       4.42492577  T        0
Si       6.21141411      12.56300065      11.12818525  T        0
Si      16.50444884      12.47168843       8.82800184  T        0
Si      13.89064088       7.16791030       2.12506204  T        0
Si       4.56681350       6.30052702       7.24790368  T        0
Si      15.53390230      13.42986535       6.00486791  T        0
Si       7.72601094       6.33864777       7.00808083  T        0
Si      12.37441665      13.39102159       6.24602704  T        0
Si       8.69564435       7.30998824       4.17689773  T        0
Si      11.40533461      12.41915350       9.07586615  T        0
Si       6.12323770       6.35075539       2.62802312  T        0
Si       3.75895172      13.41523375       9.35998114  T        0
Si      13.97803256      13.37965567      10.62461811  T        0
Si      16.34355839       6.31534150       3.89273664  T        0
O       13.73428016      10.34647956      13.69590956  T        0
O        6.37024550       9.38354137      -0.44225600  T        0
H        1.81269882      11.30123319       3.09859993  F        0
H       18.28958667       8.42947104      10.15436836  F        0
H        6.01931354       8.91222751      13.59787507  F        0
H       14.08297195      10.81847671      -0.34490677  F        0
H        3.12887899       8.92429365       0.49683426  F        0
H       16.97340651      10.80641058      12.75613404  F        0
H        1.92726146       8.79770260      10.59110356  F        0
H       18.17502404      10.93300163       2.66186473  F        0
H        5.53537813      12.95496052       1.09262639  F        0
H       14.56690736       6.77574372      12.16034191  F        0
H        2.04924741       6.48050321       2.89306910  F        0
H       18.05303808      13.25020103      10.35989921  F        0
H        8.48702655      15.71151028       8.80063176  F        0
H       11.61525895       4.01919395       4.45233654  F        0
H        5.86807409      12.98161584      13.33116226  F        0
H       14.23421140       6.74908840      -0.07819396  F        0
H        4.37526294       4.01828352       7.26036481  F        0
H       15.72702255      15.71242072       5.99260349  F        0
H        7.92514400       4.01763560       6.85279547  F        0
H       12.17714149      15.71306863       6.40017283  F        0
H        1.73086689      12.60761804      10.35624453  F        0
H       18.37141860       7.12308619       2.89672377  F        0
H        4.05997682      15.72757570       9.28699687  F        0
H        5.99116592       4.00312854       2.66051272  F        0
H       16.04230867       4.00312851       3.96597142  F        0
H       14.11111957      15.72757569      10.59245558  F        0
H       13.51650676      10.58100877      14.61047976  F        0
H        6.58577874       9.14969547      -1.35751146  F        0
Fe      10.05400822       9.87193845       6.62879725  T        1
