130
Lattice="20.102 0.0 0.0 0.0 19.731 0.0 0.0 0.0 13.253" Properties=species:S:1:pos:R:3:move_mask:L:1:tags:I:1 i=77 E=-3472.0240129048 regions="_JSON [\"Active\"]" n_terminators=34 energy=-856.3577074894223 pbc="F F F"
O       10.05020670      18.73268762       4.14130450  T        0
O       10.33928430      10.91755597       4.12849721  T        0
O        2.22267587      11.05062346       3.95436867  T        0
O        2.23512767      18.25330749       3.97605409  T        0
O       12.15640853      18.44412725       2.57458916  T        0
O       12.67945174      11.54165543       2.85476588  T        0
O       12.14660281      17.39016314       5.06629681  T        0
O       12.20303314      12.48295877       5.22423804  T        0
O        8.56430399       9.74879966       8.25298021  T        0
O       12.37104575      20.06080296       4.63067015  T        0
O       12.71559646       9.81910275       4.84206166  T        0
O        3.91853864      10.57062124       5.92081410  T        0
O        3.64287909      18.91571695       6.08704530  T        0
O        5.96542612      19.07699288      10.77990245  T        0
O        3.89215762       8.84321214       3.81072855  T        0
O        5.89483862      10.45425033      10.80642458  T        0
O        4.89022366      11.18518392       3.46066970  T        0
O        4.86501416      18.95586001       3.76086201  T        0
O        4.08354705      12.18904127       8.02030314  T        0
O        4.00145631      17.37064831       8.18634124  T        0
O        6.07339846      10.48696796       7.49865465  T        0
O        5.96313806      19.04401811       7.42649348  T        0
O        3.76477009       9.46181125       8.34515086  T        0
O        6.23677886      10.02293901       1.30774996  T        0
O        3.68336694      20.08091595       8.42429937  T        0
O        7.87851243      12.38174844       8.15170704  T        0
O        7.72153727      17.15472204       8.12938572  T        0
O        8.10763782      11.02557428       5.91448866  T        0
O        8.29398489      18.78254719       6.14501395  T        0
O        7.50625492      11.28333298       3.38231832  T        0
O        7.48134744      18.45374804       3.63017177  T        0
O        8.45823011       8.64104032       4.21159114  T        0
O       11.64217290      10.55587980       8.66503075  T        0
O       11.80690664      19.00009837       9.63391454  T        0
O        6.13341008      12.61540658       1.56212855  T        0
O        5.73363893      17.31518555       1.90554249  T        0
O        9.95650206      16.97978926       9.60286032  T        0
O       10.21366135      12.56087961       9.89789852  T        0
O       10.21681245       6.60205072       3.61390916  T        0
O        7.57215470      16.85008562      10.77578835  T        0
O        7.44687142      12.71271274      10.92658374  T        0
O        8.32979582      14.83093896       9.14038490  T        0
O        6.02631504      17.45476135      12.87451075  T        0
O        5.73713395      12.12055940      12.90121951  T        0
O        4.91330049      16.66141165      10.55471215  T        0
O        4.76666447      12.78301109      10.51341884  T        0
O        5.39759142      15.00227893       0.63039872  T        0
O        3.71564890      16.99864378       0.10167570  T        0
O        3.78665774      12.81538581       0.49164789  T        0
O       14.18531268      13.29192767       6.94352442  T        0
O       14.18564354      16.80730274       6.75740934  T        0
O       12.26645728      14.97909290       6.11159782  T        0
O        8.64803572       6.45078218       5.75805321  T        0
O       11.73919702      13.02190498       7.80865062  T        0
O       11.76290206      17.14759997       7.66238785  T        0
O        2.28422435      16.26508917      10.01886016  T        0
O        7.68593540       6.26094683       3.18768368  T        0
O        2.17999789      13.12634345       9.67114839  T        0
O       12.90384661      12.33629359      10.17941563  T        0
O       12.35578723      16.44196980      10.24575731  T        0
O        4.08213384      14.75927954       8.87156476  T        0
Si      11.67997766      18.64539856       4.13338612  T        0
Si      11.92959122      11.16712219       4.27785538  T        0
Si       3.70090491      10.41456631       4.30569625  T        0
Si       3.44259025      19.23708357       4.50102113  T        0
Si       4.45018171      10.68713606       7.47548438  T        0
Si       4.33703028      18.84590304       7.55377131  T        0
Si       7.65143520      10.88508879       7.48792408  T        0
Si       7.54446625      18.70792016       7.57692635  T        0
Al       8.74264706      10.32324487       4.36485799  T        0
Si       8.56216317      19.21470850       4.59333196  T        0
Si       6.16376281      11.22140646       2.41693107  T        0
Si       6.11217474      18.65595256       2.76649892  T        0
Si       8.43693351      16.46560724       9.44839612  T        0
Al       8.58828518      13.06293372       9.67282848  T        0
Si       6.12980841      17.49775380      11.23587683  T        0
Si       6.01713382      12.04862244      11.27460999  T        0
Si       5.28778739      16.62742996       0.49429415  T        0
Si       5.33328666      13.40059346       0.36528232  T        0
Si      12.60108366      13.41453022       6.49061292  T        0
Si      12.59573242      16.55092472       6.38763007  T        0
Si       8.73830638       7.04483057       4.20256366  T        0
Si      11.60455649      12.12754961       9.18118144  T        0
Si      11.49292873      17.42528365       9.25148786  T        0
Si       3.80127593      16.29715449       9.40127563  T        0
Si       3.77002357      13.18864829       9.28910691  T        0
O        8.30471733      19.64043972       8.71714623  T        0
O        2.97729372      20.79614623       4.21688847  T        0
O        6.44533489      19.96096936       1.81837439  T        0
O        8.40010256      20.85468734       4.63739041  T        0
O        6.32491091      17.30406623      -0.58149775  T        0
O        6.00335888      13.20340992      -1.12679788  T        0
H        1.81269882      11.30123319       3.09859993  F        0
H        1.81269882      18.29482316       3.09859994  F        0
H       13.03074803      18.74401529       2.26762503  F        0
H       13.03074804      10.85204106       2.26762503  F        0
H        8.32625906       8.98649408       8.81306681  F        0
H       12.34310542      20.30287261       5.56688324  F        0
H       12.34314048       9.29328245       5.56696388  F        0
H        6.59189912      19.77694965      11.03822749  F        0
H        3.60112680       8.06005012       4.30646574  F        0
H        6.59189033       9.81912404      11.03827922  F        0
H        4.11249823       9.08086468       9.18193973  F        0
H        5.72719027       9.20254625       1.33756862  F        0
H        4.11250309      20.51523557       9.18186357  F        0
H       11.52310774       9.76092419       9.21110646  F        0
H       11.52310955      19.83515307       9.21116341  F        0
H       11.09748793       6.69447189       4.02620164  F        0
H        5.86807409      16.61444052      13.33116226  F        0
H        5.86807409      12.98161584      13.33116226  F        0
H        2.98936131      16.34896307       0.14601228  F        0
H        2.98936131      13.24709329       0.14601228  F        0
H       14.91456245      13.24933472       6.30897701  F        0
H       14.91456244      16.34672163       6.30897701  F        0
H        8.00892554       6.80873427       6.39739775  F        0
H        1.73086688      16.98843832      10.35624453  F        0
H        6.78202892       6.52695113       2.93525138  F        0
H        1.73086689      12.60761804      10.35624453  F        0
H       13.32025657      13.20375310      10.31771692  F        0
H       13.32025658      16.39230324      10.31771692  F        0
H        8.32625906      20.60985804       8.81306681  F        0
H        3.60112680      21.53630199       4.30646574  F        0
H        5.72719026      20.39380587       1.33756863  F        0
H        8.66651872      21.47399316       3.93953912  F        0
H        6.36643797      17.19386972      -1.54340896  F        0
H        6.36643797      12.40218664      -1.54340896  F        0
Fe       7.30068968      14.37179525       7.46382461  T        0
Fe       7.10995257      12.60212861       4.88708037  T        1
O        5.96728789      13.82826751       6.03146579  T        2
O        7.17871363      14.54891857       5.44682322  T        3
