141
Lattice="19.123 0.0 0.0 0.0 14.277 0.0 0.0 0.0 7.5465" Properties=species:S:1:pos:R:3:move_mask:L:1:tags:I:1 i=128 E=-2603.9155142701 regions="_JSON [\"Active\"]" n_terminators=32 energy=-955.4442716212731 pbc="F F F"
O        5.94207038       1.10629250       1.37246178  T        0
O       15.90616188       8.42046188       5.86623540  T        0
O       13.04910271       1.11450713       1.45416716  T        0
O        3.52080895       8.46577663       5.78230038  T        0
O        6.01538919      13.16090549       1.42279739  T        0
O       15.81471131       5.72145218       5.83622499  T        0
O       12.87258869      13.01373876       2.04524885  T        0
O        3.48455209       5.78243784       5.83353306  T        0
O       13.43846504      13.15480466       6.21152217  T        0
O        3.40097860       5.80737447       1.69138109  T        0
O        6.07202233      13.16234686       6.08408560  T        0
O       15.56243711       5.81517621       1.96908627  T        0
O       13.01945846       1.13143782       6.03230119  T        0
O        3.37752536       8.49835885       1.70838669  T        0
O        6.07298175       1.11482918       6.08582127  T        0
O       15.73869737       8.49564302       1.75248393  T        0
O        7.21708222       3.31344439       2.41501001  T        0
O       17.24043756      10.74744664       6.11964079  T        0
O       12.00453220       3.42018598       2.47856841  T        0
O        1.94398006      10.62898713       6.18075365  T        0
O        7.20732639      10.92890401       2.46303714  T        0
O       17.10801398       3.34707671       6.08629561  T        0
O       11.88673253      10.50337878       2.15649888  T        0
O        1.95842902       3.56878151       6.11106003  T        0
O       12.07205310      11.12609735       4.98935377  T        0
O        1.94229803       3.55183751       1.42361512  T        0
O        7.16584884      10.86211864       5.08501491  T        0
O       17.17261175       3.77144637       1.28823444  T        0
O       11.81252312       3.40068845       5.10552467  T        0
O        1.94964299      10.78344169       1.44923163  T        0
O        7.26242912       3.43192557       5.17456363  T        0
O       17.09734229      10.78444208       1.35955753  T        0
O        6.65585542       3.25979105      -0.06128683  T        0
O       16.15278664      10.13334160       3.80709973  T        0
O       12.49858656       3.26679972      -0.04460767  T        0
O        3.01097109      10.15391477       3.78777204  T        0
O        6.64054612      11.01895587      -0.04526082  T        0
O       16.13959199       4.00610418       3.77010960  T        0
O       12.80435414      11.39495263      -0.14884259  T        0
O        3.03600764       4.15518850       3.76375375  T        0
O        4.62175107       3.41391192       1.73449494  T        0
O       14.54546807      10.72257218       5.88253440  T        0
O       14.56410618       3.32037895       1.71745842  T        0
O        4.59160378      10.93625742       5.80338652  T        0
O        4.62531321      10.87789470       1.78420833  T        0
O       14.41830223       3.43321354       5.72071790  T        0
O       14.50667551      10.87233980       1.83082093  T        0
O        4.63211213       3.34956182       5.76118690  T        0
O       11.64762138       8.42925709       3.86059529  T        0
O        7.44855624       8.57351200       3.71838382  T        0
O       11.87484096       5.75182603       3.78943392  T        0
O       17.31104242      13.12695228      -0.04076644  T        0
O        7.64529314       5.95811087       3.59195990  T        0
O        9.45987083      10.29808670       3.78829624  T        0
O        9.71804541       4.36294278       3.57184830  T        0
O       13.75358312       7.16447969       5.00656903  T        0
O        5.71971975       7.06870379       5.12759527  T        0
O        5.56343996       7.17492636       2.45875013  T        0
O       13.39134666       7.37555647       2.30022583  T        0
O       14.45363705       7.05378945      -0.10571983  T        0
O        4.95694889       7.18794718      -0.06624629  T        0
Si       6.09983236       2.76213425       1.40609540  T        0
Si      15.93509486      10.01588906       5.43377774  T        0
Si      13.05343351       2.76483594       1.41459436  T        0
Si       3.27928017      10.04648633       5.40348039  T        0
Si       6.09495946      11.50595160       1.42550102  T        0
Si      15.85559033       4.14143212       5.37852191  T        0
Si      13.03844302      11.47796971       1.46636767  T        0
Si       3.29750075       4.20696531       5.38353312  T        0
Si      13.12851812      11.52798962       6.13629812  T        0
Si       3.27008823       4.22483472       2.14072667  T        0
Si       6.09435100      11.50656324       6.12362138  T        0
Si      15.85601865       4.20975506       2.17300720  T        0
Si      12.96612631       2.78178394       6.10403227  T        0
Si       3.25478828      10.07276492       2.16745494  T        0
Si       6.13828903       2.77849973       6.12015458  T        0
Si      15.88744170      10.07378438       2.19977284  T        0
Al      11.18788705      10.18791475       3.85979135  T        0
Si       7.85193312      10.17698326       3.76727251  T        0
Si      11.34698886       4.18525948       3.75648535  T        0
Si      17.57705300      11.48765108      -0.06345539  T        0
Al       7.90043409       4.13567119       3.75726845  T        0
Si      14.96813563       7.10225222       6.10385987  T        0
Si       4.39848340       7.11526760       6.10073564  T        0
Si       4.29025995       7.15928962       1.43868483  T        0
Si      14.83147973       7.17370668       1.46796493  T        0
Si      12.67648062       7.17027630       3.81759950  T        0
Si       6.55767398       7.20948685       3.74133192  T        0
O       19.17371610      11.22180433      -0.35069477  T        0
O        6.64266856       3.26942781       7.60677580  T        0
O       12.44677578       3.23116785       7.59532663  T        0
O        6.65010595      11.03307777       7.59484999  T        0
O       12.48526218      11.05999456       7.58085090  T        0
O       14.24068526       7.08263447       7.57749630  T        0
O        4.99921663       7.15024679       7.63301915  T        0
O       15.52429662       8.46242003      -2.10475103  T        0
O       15.75212495       5.86434501      -2.21349692  T        0
O       12.83098576      13.07441752      -2.26462125  T        0
O       16.74717621      10.74452202      -1.28050480  T        0
O       11.56972543      10.71242067      -2.37716710  T        0
O       16.37911842      10.31804505      -3.86780894  T        0
O       14.27135480      10.79001869      -2.28918831  T        0
O       13.21824423       6.98561305      -2.33953147  T        0
Si      15.73699879      10.06900824      -2.37262722  T        0
Si      12.89386381      11.49406464      -1.78675627  T        0
Si      14.74507057       7.07699388      -1.72264103  T        0
H        5.61083456       0.52083913       2.07985367  F        0
H       13.50938118       0.51971906       2.07492992  F        0
H        5.61112307      13.75835362       2.07975607  F        0
H       13.50958039      13.75682243       2.07498241  F        0
H       13.51084140      13.75504172       5.44776650  F        0
H        5.62495998      13.75277707       5.44935724  F        0
H       13.50975252       0.52161770       5.44778410  F        0
H        5.62509051       0.52255101       5.44942550  F        0
H       17.28974254      11.12548174       7.01862795  F        0
H        1.83343022      11.12554006       7.01950242  F        0
H       17.28979000       3.14560285       7.02339196  F        0
H        1.81954193       3.15353441       6.98813474  F        0
H        1.83183800       3.14857954       0.53722786  F        0
H       17.29134854       3.14797220       0.53999843  F        0
H        1.83154049      11.12909684       0.54034962  F        0
H        6.35952436       2.97904956      -0.93427223  F        0
H       12.76076393       2.97683097      -0.93375646  F        0
H        6.36236324      11.29726414      -0.93275871  F        0
H       16.56020813      13.76127004      -0.00066979  F        0
H        4.51175007       7.13509558      -0.92932085  F        0
H       20.08739461      11.34211663       0.00099186  F        0
H        6.35949513       2.97597070       8.47938261  F        0
H       12.76321398       2.97604733       8.47995589  F        0
H        6.35946036      11.30224636       8.48133548  F        0
H       12.76333233      11.30075111       8.47967776  F        0
H       14.61405599       7.13800201       8.47661577  F        0
H        4.50898861       7.14016697       8.47499567  F        0
H       15.75636517       4.89339805      -2.09021006  F        0
H       13.51084140      13.75504172      -2.09873350  F        0
H       11.39521725      10.28762784      -3.24237523  F        0
H       15.92569105      10.11584057      -4.70878458  F        0
H       12.88191441       7.13773895      -3.23957932  F        0
Fe       9.39980689       6.30147588       2.61093743  T        0
Fe      11.52919278       8.54154817       1.61247684  T        0
O       10.25546191       7.26809972       1.32770663  T        0
