141
Lattice="20.102 0.0 0.0 0.0 19.731 0.0 0.0 0.0 13.253" Properties=species:S:1:pos:R:3:move_mask:L:1:tags:I:1 i=77 E=-3472.0240129048 regions="_JSON [\"Active\"]" n_terminators=34 energy=-947.06154424111 pbc="F F F"
O       11.70599702      16.89439718       4.87305099  T        0
O       11.69515849      12.73866262       4.76537546  T        0
O        3.33019689      19.19875619       6.20960238  T        0
O        6.00566029      19.01612671      11.06303121  T        0
O        5.91678449      10.49584319      10.86211454  T        0
O       16.99415430      10.67010918       9.16666306  T        0
O       16.91764305      19.00591073       8.73107163  T        0
O        3.68500295      12.20373428       7.98100997  T        0
O        4.21078493      17.30974210       7.94304505  T        0
O       14.09251362      17.40345871      12.14960206  T        0
O       13.96606861      12.40688937      12.07013712  T        0
O        5.94911307      18.96036232       6.75785311  T        0
O       16.15482765      18.88255045      13.27441656  T        0
O        4.19970925      19.89028236       8.57630506  T        0
O       14.22133595      20.01719247      11.68184751  T        0
O        7.56558351      12.36437788       7.81216232  T        0
O        7.82126026      17.22380849       7.51219329  T        0
O        8.46937263      19.32700813       5.83103680  T        0
O       11.91875494      10.60305191       9.47496865  T        0
O       11.35420004      19.06100747       9.02007733  T        0
O       16.12454069      17.02607902       4.54088529  T        0
O       16.26128996      12.46184070       4.62521448  T        0
O        9.87748080      16.92887879       9.51391976  T        0
O        9.89643567      12.41676339       9.26929149  T        0
O        7.40567371      16.87191271      10.42796539  T        0
O        7.58425806      12.60369259      10.49890791  T        0
O       17.64855904      13.23741493       9.47647342  T        0
O       18.01532764      16.73593659       9.46754034  T        0
O        8.33760752      14.60185194       8.88260841  T        0
O        6.10574446      16.98588340      12.73149980  T        0
O        6.04293909      12.52814772      12.66800174  T        0
O       16.37447582      12.57279712       7.30565173  T        0
O       16.53768771      16.88940717       7.21090777  T        0
O        4.68760747      16.73528361      10.50061485  T        0
O        4.91499825      12.84145618      10.30009255  T        0
O       15.03692144      12.48756330       9.60432101  T        0
O       15.31888582      17.08484419       9.58325332  T        0
O       15.76163130      14.75118272       5.84471015  T        0
O       14.03015924      12.71727457       6.10225121  T        0
O       14.05039174      16.79278009       6.24156394  T        0
O       12.29943714      14.75000265       6.27350421  T        0
O       11.76431901      12.37685526       7.41904553  T        0
O       11.75755232      16.92910471       7.56710154  T        0
O        2.15850152      16.69321776       9.53507131  T        0
O        2.28136958      13.33846498      10.03769488  T        0
O       12.44647605      13.07720599       9.91283299  T        0
O       12.42848744      16.93595678      10.19630699  T        0
O        3.95399005      14.81354552       8.79161771  T        0
O       14.22439211      14.74379709      10.88336679  T        0
Si       4.43382327      18.83001487       7.36475062  T        0
Si      14.59912179      18.85472427      12.75529926  T        0
Si       7.55190087      18.75730398       7.07859153  T        0
Al       8.29209563      16.31266061       8.90132085  T        0
Si       8.37282306      13.01224566       9.10549183  T        0
Si       6.01360966      17.40067673      11.15531193  T        0
Si       6.14193577      12.11827759      11.08577074  T        0
Si      16.48896772      12.22246665       8.89878411  T        0
Si      16.66922067      17.39024283       8.76872552  T        0
Si      15.60655714      13.13084303       5.97735414  T        0
Si      15.62081481      16.36968716       5.96665929  T        0
Si      12.45827787      13.14118044       6.16158602  T        0
Si      12.47563989      16.35528082       6.22238609  T        0
Si      11.48248978      12.12248025       9.01232670  T        0
Si      11.36720681      17.44189565       9.04565112  T        0
Si       3.73656976      16.38346000       9.19973546  T        0
Si       3.73436405      13.24907408       9.25485927  T        0
Si      13.93874481      13.18079520      10.61205540  T        0
Al      14.11597417      16.42755953      10.59112929  T        0
O       14.01268419      20.79664841      16.08825215  T        0
O        9.97720741      21.32442546       9.18055888  T        0
O        7.64301486      21.07681892      10.50771305  T        0
O       17.79622636      21.44763274       9.35554716  T        0
O        7.62816403      22.45962017       8.30902042  T        0
O        8.00779178      19.75109165       8.29478533  T        0
O        6.49306129      21.02549810      12.82091635  T        0
O       16.51599540      21.09935985       7.05037651  T        0
O        4.95224879      21.37637800      10.59760949  T        0
O       15.15238884      20.90822083       9.35340983  T        0
O       11.79246846      21.12461854       7.27781985  T        0
O        2.31956877      21.35838258       9.90903420  T        0
O       12.57314563      21.20208481       9.88283677  T        0
O        3.86594586      22.61330825       8.40408773  T        0
O       14.31021091      22.66237036      11.23587940  T        0
Si       8.34687616      21.16292768       9.03047155  T        0
Si       6.25327061      20.62689922      11.24546497  T        0
Si      16.59000438      20.58956576       8.61890278  T        0
Si      11.43965327      20.67088759       8.82204647  T        0
Si       3.86435485      21.28780711       9.36251943  T        0
Si      14.07410429      21.19418216      10.53388996  T        0
O        9.85575940      18.08185149      17.58986290  T        0
O       12.11932082      18.84699032      16.28585585  T        0
O       12.22454622      17.04867205      18.19271227  T        0
O       11.59341377      19.68233193      18.81855304  T        0
O       13.63388604      19.05457553      14.07477189  T        0
O       14.62948347      18.23192919      16.48920920  T        0
O        5.89986452      12.60661544      15.35877271  T        0
O        5.86511242      16.96551230      15.40431084  T        0
O        5.43197797      14.77052504      13.98342286  T        0
O        3.66160960      16.83897958      13.90162115  T        0
O        3.63966438      12.75324051      13.92553202  T        0
Si      11.45441022      18.42834508      17.74525096  T        0
Si      13.59695819      19.23746710      15.71902388  T        0
Si       5.24880049      16.38030512      14.00219667  T        0
Si       5.24449002      13.14817020      13.95808742  T        0
H       11.77741499      17.76721957       4.45015374  F        0
H       11.77741500      11.82883679       4.45015372  F        0
H        3.46536401      19.01504758       5.26900440  F        0
H        6.59189033       9.81912404      11.03827922  F        0
H       16.64303307       9.81912404       8.84117322  F        0
H        4.35449611      11.55048736       7.68308178  F        0
H       14.40563885      11.55048737      12.19637067  F        0
H       16.97340650      18.78964577      12.75613404  F        0
H        7.69777211      11.47779022       7.44841170  F        0
H        8.50665683      19.01129957       4.91774358  F        0
H       11.52310774       9.76092419       9.21110646  F        0
H       15.87290964      17.87210703       4.12309272  F        0
H       15.87290964      11.72394929       4.12309273  F        0
H       18.05303808      13.25020103      10.35989921  F        0
H       18.05303809      16.34585533      10.35989921  F        0
H        1.73086688      16.98843832      10.35624453  F        0
H        1.73086689      12.60761804      10.35624453  F        0
H       13.65226955      21.53630200      15.57301841  F        0
H       18.28958667      21.16688107      10.15436837  F        0
H        7.84356087      22.87259074       7.45668424  F        0
H        6.01931354      20.68412461      13.59787507  F        0
H       16.07044730      20.68412712       6.28158542  F        0
H       12.20788616      20.61981982       6.55602502  F        0
H        1.92726146      20.79864952      10.59110356  F        0
H        4.51576461      22.82060840       7.71911054  F        0
H       14.56690736      22.82060840      12.16034191  F        0
H        9.14696243      18.71543709      17.37869575  F        0
H       12.25872462      16.58911350      19.04928408  F        0
H       12.34310542      20.30287261      18.81988324  F        0
H       15.58095514      18.39037197      16.50370227  F        0
H        5.82176689      11.72394931      15.75639142  F        0
H        5.82176689      17.87210706      15.75639142  F        0
H        2.98936131      16.34896307      13.39901228  F        0
H        2.98936131      13.24709329      13.39901228  F        0
Fe      12.05940359      17.55424513      12.22726147  T        0
Fe       9.07923833      17.39435733      11.41355433  T        1
O       10.32093747      17.78966799      12.66446261  T        2
