145
Lattice="20.102 0.0 0.0 0.0 19.731 0.0 0.0 0.0 13.253" Properties=species:S:1:pos:R:3:move_mask:L:1:tags:I:1 i=77 E=-3472.0240129048 regions="_JSON [\"Active\"]" n_terminators=36 energy=-965.6459674975556 pbc="F F F"
O       10.09795488       8.23760855       9.37255886  T        0
O       18.02519633       8.53614751       9.21856973  T        0
O       11.72022510      16.85790116       4.78510665  T        0
O       11.91866207      12.74162540       4.73695509  T        0
O       16.55445652       8.55925590       7.05523350  T        0
O        6.41286363      19.01355862      11.24123207  T        0
O        6.90382857      10.69906996      10.77630892  T        0
O       16.39361506      10.67038279       8.74652610  T        0
O       16.63853832      18.78681907       9.07697990  T        0
O       15.35399003       8.35650866       9.47492019  T        0
O       14.26607699      17.41485543      11.89788122  T        0
O       14.39928432      12.21238546      12.06466750  T        0
O        5.72020458      19.22404757       6.71943008  T        0
O       16.12644692      18.94752717      13.19866718  T        0
O       16.17718537      10.41737801      13.14867542  T        0
O       14.24246681      20.02374304      11.52714852  T        0
O       14.17712698       9.65295608      11.48249921  T        0
O        7.84867274      12.43316815       7.50695337  T        0
O        7.72820444      17.53786776       7.39054453  T        0
O        8.11000221      19.57873163       5.59758642  T        0
O       11.48344467       8.82618894       7.19043404  T        0
O       12.71452714       8.41340510       9.60681243  T        0
O       11.33065421      10.63418619       9.21638025  T        0
O       11.62591867      19.01449141       9.13039686  T        0
O       16.25407634      17.09704040       4.56587133  T        0
O       14.02344561       6.95954304      11.37205322  T        0
O       16.31748428      12.42653583       4.62717406  T        0
O        9.89214529      16.95988739       9.37852834  T        0
O        9.88975754      12.89365248       9.25974161  T        0
O        7.42165912      16.76918396      10.27886933  T        0
O        7.37770882      13.12516201      10.13593919  T        0
O       17.93828859      12.56775737       9.67308170  T        0
O       17.70534915      16.31070122       9.45471373  T        0
O        8.31525077      14.84247044       8.37094617  T        0
O        5.91301967      16.66973125      12.43625239  T        0
O        5.99757501      12.78789930      12.38288537  T        0
O       16.67999128      12.82165054       7.23771246  T        0
O       16.45979808      16.85006799       7.23230790  T        0
O        4.77975435      17.40474551      10.03766904  T        0
O        4.80646002      12.20158370      10.04392899  T        0
O       15.26377430      13.01069502       9.42712473  T        0
O       15.02868193      16.69698362       9.45398708  T        0
O       15.73561023      14.79016246       5.70579064  T        0
O       14.17275992      12.70266446       6.23805580  T        0
O       14.06516132      16.88382036       6.11882957  T        0
O       12.44416056      14.77093617       6.23330764  T        0
O       11.83106944      12.49342845       7.43068060  T        0
O       11.76105156      16.99050052       7.45487609  T        0
O       12.37230791      12.99303212      10.03101021  T        0
O       12.40729763      16.65227575      10.04832128  T        0
O       13.83327832      14.88493973      11.12600210  T        0
Si      16.57250897       9.05450480       8.63134593  T        0
Si      14.59014302      18.85823605      12.60626715  T        0
Si      14.62782010      10.72266557      12.63664981  T        0
Si       7.34896331      19.05192448       6.96154175  T        0
Si      11.42674194       9.03962654       8.83113763  T        0
Si      14.08456005       8.35887298      10.50178090  T        0
Al       8.27913625      16.53066712       8.65457562  T        0
Si       8.34547456      13.30085951       8.81156869  T        0
Si       6.10524432      17.45478067      11.01688459  T        0
Si       6.24429886      12.20370296      10.86937860  T        0
Si      16.56176268      12.29477483       8.79556347  T        0
Si      16.46760649      17.18432971       8.81759885  T        0
Si      15.72559798      13.17823812       5.96442292  T        0
Si      15.62276481      16.39518310       5.90619072  T        0
Si      12.60568137      13.16037383       6.16475130  T        0
Si      12.51216494      16.37880715       6.14213966  T        0
Si      11.35121863      12.23075099       8.96168553  T        0
Si      11.41075700      17.42686362       8.97170362  T        0
Al      14.09546585      13.16007211      10.65964366  T        0
Si      13.95810212      16.43900877      10.63770933  T        0
O       14.02769568      20.74158837      15.98745825  T        0
O       10.02330256      21.14173800       9.29703822  T        0
O        7.66875129      21.23151465      10.51543785  T        0
O       17.96293390      21.11409347       9.23470732  T        0
O        8.05978259      22.76105736       8.39669937  T        0
O        7.83897221      20.07205911       8.14478492  T        0
O        6.59046375      21.08360876      12.91870182  T        0
O       16.70564942      20.57439807       7.01765555  T        0
O        4.93707382      21.24374505      10.86202921  T        0
O       15.23389977      21.02704030       9.25678964  T        0
O       11.61941444      20.98760426       7.23718648  T        0
O       12.66236406      21.31679688       9.75557047  T        0
O       14.44633925      22.68609485      11.20302894  T        0
Si       8.40555751      21.29643990       9.05285393  T        0
Si       6.39399559      20.65110465      11.34753865  T        0
Si      16.60953661      20.38016639       8.64678585  T        0
Si      11.49550398      20.62246016       8.83900386  T        0
Si      14.14137168      21.25350529      10.45460037  T        0
O       12.08245741      18.77481070      15.96506917  T        0
O       12.08537866      10.86552608      15.94223141  T        0
O       13.66306666      19.04215852      13.92564845  T        0
O       13.72068562      10.43589002      13.96456655  T        0
O       13.94127550       8.82790988      16.09455338  T        0
O       14.63972115      18.19282835      16.36726579  T        0
O       14.63118729      11.37996282      16.40588461  T        0
O        6.08160625      12.18842654      14.93618384  T        0
O        6.06297160      17.23933399      15.04547043  T        0
O        5.50700285      14.73213673      14.15109373  T        0
O        3.67028884      16.74040259      13.97366366  T        0
O        3.69398115      12.74649142      13.84892724  T        0
Si      13.61752290      19.19725441      15.55975540  T        0
Si      13.61548912      10.37112488      15.58977525  T        0
Si       5.27373699      16.33756417      13.92392427  T        0
Si       5.30684870      13.12378236      13.83416108  T        0
H        9.15542084       8.42972578       9.21208484  F        0
H       18.28958667       8.42947104      10.15436836  F        0
H       11.77741499      17.76721957       4.45015374  F        0
H       11.77741500      11.82883679       4.45015372  F        0
H       16.07044731       8.91222497       6.28158540  F        0
H        6.59189033       9.81912404      11.03827922  F        0
H        5.06295559      18.75104696       7.26028496  F        0
H       16.97340650      18.78964577      12.75613404  F        0
H       16.97340651      10.80641058      12.75613404  F        0
H        7.69777211      11.47779022       7.44841170  F        0
H        8.50665683      19.01129957       4.91774358  F        0
H       12.20788617       8.97653229       6.55602501  F        0
H       15.87290964      17.87210703       4.12309272  F        0
H       14.56690736       6.77574372      12.16034191  F        0
H       15.87290964      11.72394929       4.12309273  F        0
H       18.05303808      13.25020103      10.35989921  F        0
H       18.05303809      16.34585533      10.35989921  F        0
H        4.26454119      16.60174699       9.87579966  F        0
H        4.26454119      12.99430937       9.87579967  F        0
H       13.65226955      21.53630200      15.57301841  F        0
H       18.28958667      21.16688107      10.15436837  F        0
H        7.84356087      22.87259074       7.45668424  F        0
H        6.01931354      20.68412461      13.59787507  F        0
H       16.07044730      20.68412712       6.28158542  F        0
H        4.52133035      21.07133226      10.00226603  F        0
H       12.20788616      20.61981982       6.55602502  F        0
H       14.56690736      22.82060840      12.16034191  F        0
H       11.86384156      18.29482316      16.78088422  F        0
H       11.86384157      11.30123319      16.78088421  F        0
H       13.65226955       8.06005012      15.57301841  F        0
H       15.58095514      18.39037197      16.50370227  F        0
H       15.58095515      11.20568437      16.50370227  F        0
H        5.82176689      11.72394931      15.75639142  F        0
H        5.82176689      17.87210706      15.75639142  F        0
H        2.98936131      16.34896307      13.39901228  F        0
H        2.98936131      13.24709329      13.39901228  F        0
Fe      11.66829567      14.61411931      11.06290524  T        0
Fe       9.09117386      16.29938707      11.29138045  T        1
O        9.88822998      14.57985861      12.02555089  T        2
O       10.67756725      15.81807937      12.41712964  T        3
