141
Lattice="19.123 0.0 0.0 0.0 14.277 0.0 0.0 0.0 7.5465" Properties=species:S:1:pos:R:3:move_mask:L:1:tags:I:1 i=128 E=-2603.9155142701 regions="_JSON [\"Active\"]" n_terminators=32 energy=-955.3490699616252 pbc="F F F"
O        6.07114182       1.13617831       1.47861001  T        0
O       15.69905157       8.41876619       5.77934897  T        0
O       13.23873129       1.09556531       1.33530944  T        0
O        3.49843293       8.45108262       5.80249214  T        0
O        6.04535860      13.14415067       1.45741654  T        0
O       15.68171901       5.74468540       5.81767754  T        0
O       12.83328552      13.05810067       1.99480366  T        0
O        3.44511876       5.76254649       5.83880319  T        0
O       13.34587944      13.20746877       6.23451432  T        0
O        3.39851259       5.80281533       1.71094752  T        0
O        6.04803938      13.15293710       6.09237185  T        0
O       15.72309239       5.81367727       1.90110907  T        0
O       13.11671624       1.07279426       6.15055690  T        0
O        3.37389081       8.49514643       1.69073354  T        0
O        6.25098137       1.18186521       5.81022292  T        0
O       15.67357852       8.50243502       1.78697609  T        0
O        7.08240776       3.46903221       2.48743083  T        0
O       17.22410551      10.60513735       6.19236514  T        0
O       11.96743970       3.27240205       2.42990824  T        0
O        1.93090987      10.61662163       6.18636100  T        0
O        7.18145452      10.86110888       2.45904341  T        0
O       17.15851991       3.50450708       6.12500495  T        0
O       11.75543543      10.62468259       2.12442760  T        0
O        1.95645391       3.50947245       6.08647063  T        0
O       12.06843270      11.14596782       4.99893892  T        0
O        1.90143444       3.57324789       1.41703008  T        0
O        7.14731621      10.85870878       5.08337737  T        0
O       17.20797124       3.61733777       1.39667611  T        0
O       11.83979423       3.30341586       5.17378542  T        0
O        1.93234414      10.76789241       1.44551560  T        0
O        7.21299487       3.61529413       5.11646361  T        0
O       17.01168406      10.79873819       1.36033731  T        0
O        6.64900702       3.24696660      -0.04537784  T        0
O       16.11225189      10.18243931       3.82145190  T        0
O       12.49304031       3.27268143      -0.05867725  T        0
O        2.99152483      10.11956934       3.78806395  T        0
O        6.61624255      11.00329343      -0.04232498  T        0
O       16.09395660       4.02195254       3.79444033  T        0
O       12.79926417      11.40202427      -0.16593679  T        0
O        3.03926573       4.12558108       3.75996560  T        0
O        4.55166727       3.36345528       1.69025819  T        0
O       14.55630235      10.83756403       5.91520288  T        0
O       14.54455570       3.40747159       1.68761293  T        0
O        4.57610042      10.92031819       5.79331751  T        0
O        4.60112330      10.88873881       1.79126975  T        0
O       14.46344544       3.36006921       5.81353125  T        0
O       14.41817608      10.86769215       1.88087203  T        0
O        4.62206523       3.33995582       5.77253621  T        0
O       11.65724988       8.50973487       3.70611244  T        0
O        7.43682858       8.53772356       3.77829895  T        0
O       11.51409055       5.86886896       3.70400752  T        0
O       17.31181652      13.12684041      -0.04194637  T        0
O        7.56879450       5.89800809       3.61366911  T        0
O        9.43904216      10.28462266       3.79691804  T        0
O        9.43325574       4.24308776       3.58278772  T        0
O       13.49699844       7.07745246       5.07819165  T        0
O        5.67568359       7.02655612       5.12722874  T        0
O        5.55741828       7.17522946       2.45436480  T        0
O       13.44558088       7.16557412       2.36293020  T        0
O       14.46282657       7.03792323      -0.08937523  T        0
O        4.95562153       7.13821305      -0.06461152  T        0
Si       6.05265046       2.78625996       1.41259386  T        0
Si      15.87692609      10.01821887       5.44287577  T        0
Si      13.06156607       2.74788850       1.39160067  T        0
Si       3.26089409      10.03272391       5.40531879  T        0
Si       6.08398623      11.48879030       1.43377274  T        0
Si      15.82528441       4.15449497       5.40621756  T        0
Si      12.98509902      11.50835649       1.45140822  T        0
Si       3.27534285       4.19490241       5.37942493  T        0
Si      13.10397280      11.57027534       6.15693061  T        0
Si       3.23224771       4.22507439       2.13544364  T        0
Si       6.07437257      11.49837350       6.12326422  T        0
Si      15.87576767       4.19660704       2.18177991  T        0
Si      12.97423505       2.73000519       6.14861091  T        0
Si       3.23897153      10.06731231       2.16662205  T        0
Si       6.13819455       2.81138801       6.07668354  T        0
Si      15.81682112      10.07738147       2.21868966  T        0
Al      11.17662113      10.24434676       3.85907077  T        0
Si       7.83294355      10.15001589       3.78034110  T        0
Al      11.24750212       4.06622439       3.76791412  T        0
Si      17.55441959      11.48123216      -0.04756844  T        0
Si       7.80026974       4.22054652       3.73178403  T        0
Si      14.79150675       7.08994513       6.08936551  T        0
Si       4.36479285       7.09646004       6.10894291  T        0
Si       4.28325728       7.15701369       1.43445264  T        0
Si      14.84491567       7.12039999       1.49437579  T        0
Si      12.55891887       7.13865839       3.75838782  T        0
Si       6.51955821       7.20256637       3.75367256  T        0
O       19.15470873      11.18212768      -0.28287367  T        0
O        6.66970735       3.19816537       7.58222085  T        0
O       12.41925446       3.21912204       7.61602520  T        0
O        6.62192619      11.01164712       7.59287844  T        0
O       12.44759668      11.08764729       7.58784506  T        0
O       14.16202621       7.12457000       7.61148212  T        0
O        4.98885643       7.08953981       7.62992796  T        0
O       15.52640454       8.45775620      -2.08648367  T        0
O       15.72480842       5.86102632      -2.23573048  T        0
O       12.83871801      13.07370666      -2.28842234  T        0
O       16.74576738      10.74772881      -1.28446683  T        0
O       11.56184499      10.72477560      -2.38344433  T        0
O       16.38276949      10.30067495      -3.86585602  T        0
O       14.26950268      10.78411823      -2.30036249  T        0
O       13.20729667       7.02396575      -2.32896398  T        0
Si      15.73589202      10.05867710      -2.36985790  T        0
Si      12.89540094      11.49550618      -1.80099402  T        0
Si      14.73546124       7.07403236      -1.70243229  T        0
H        5.61083456       0.52083913       2.07985367  F        0
H       13.50938118       0.51971906       2.07492992  F        0
H        5.61112307      13.75835362       2.07975607  F        0
H       13.50958039      13.75682243       2.07498241  F        0
H       13.51084140      13.75504172       5.44776650  F        0
H        5.62495998      13.75277707       5.44935724  F        0
H       13.50975252       0.52161770       5.44778410  F        0
H        5.62509051       0.52255101       5.44942550  F        0
H       17.28974254      11.12548174       7.01862795  F        0
H        1.83343022      11.12554006       7.01950242  F        0
H       17.28979000       3.14560285       7.02339196  F        0
H        1.81954193       3.15353441       6.98813474  F        0
H        1.83183800       3.14857954       0.53722786  F        0
H       17.29134854       3.14797220       0.53999843  F        0
H        1.83154049      11.12909684       0.54034962  F        0
H        6.35952436       2.97904956      -0.93427223  F        0
H       12.76076393       2.97683097      -0.93375646  F        0
H        6.36236324      11.29726414      -0.93275871  F        0
H       16.56020813      13.76127004      -0.00066979  F        0
H        4.51175007       7.13509558      -0.92932085  F        0
H       20.08739461      11.34211663       0.00099186  F        0
H        6.35949513       2.97597070       8.47938261  F        0
H       12.76321398       2.97604733       8.47995589  F        0
H        6.35946036      11.30224636       8.48133548  F        0
H       12.76333233      11.30075111       8.47967776  F        0
H       14.61405599       7.13800201       8.47661577  F        0
H        4.50898861       7.14016697       8.47499567  F        0
H       15.75636517       4.89339805      -2.09021006  F        0
H       13.51084140      13.75504172      -2.09873350  F        0
H       11.39521725      10.28762784      -3.24237523  F        0
H       15.92569105      10.11584057      -4.70878458  F        0
H       12.88191441       7.13773895      -3.23957932  F        0
Fe       9.62017063       6.24260761       2.76784791  T        0
Fe      11.09826185       8.75982806       1.59603579  T        1
O        9.95366011       7.38955910       1.36358684  T        2
