136
Lattice="20.102 0.0 0.0 0.0 19.731 0.0 0.0 0.0 13.253" Properties=species:S:1:pos:R:3:move_mask:L:1:tags:I:1 i=77 E=-3472.0240129048 regions="_JSON [\"Active\"]" n_terminators=34 energy=-903.418114953913 pbc="F F F"
O        9.97341094       8.41443406       9.20857693  T        0
O        7.64116832       8.82289823      10.36236167  T        0
O        7.66608844       7.21158427       8.28298865  T        0
O       12.19451756      12.71014369       4.47132958  T        0
O        8.15352505       9.86464965       7.92690917  T        0
O        3.52549387      11.30311914       5.91772583  T        0
O        6.45044228       8.83752455      12.72930841  T        0
O        5.95145836      11.02446431      10.96995621  T        0
O        4.75385950       8.43135180      10.23452467  T        0
O       15.10586290       8.69488283       8.96917323  T        0
O        3.95794166      12.45663686       8.21930852  T        0
O       14.74678573      12.42392968      11.66990749  T        0
O        5.95167528      11.06406677       7.03406142  T        0
O       16.17855201      10.29290123      12.53728840  T        0
O        3.90048684       9.78201637       8.11075044  T        0
O       14.01867718       9.91017510      11.16805813  T        0
O        7.96811349      12.54294554       7.87216041  T        0
O        7.50941008      17.24327947       7.84275865  T        0
O        8.26223917      11.24226194       5.60072356  T        0
O       11.45967606       8.84164531       7.15645291  T        0
O        2.11051431       8.52596670       9.67249506  T        0
O       12.63539832       8.31137355       9.58930165  T        0
O       11.40091740      10.65299259       9.22648937  T        0
O        3.68766120       7.11610401       8.10622163  T        0
O       14.47505486       7.28627431      11.26741174  T        0
O        9.86254116      17.35718492       8.98936010  T        0
O       10.08118037      12.85786820       9.46412043  T        0
O        7.70310121      16.93516907      10.54654594  T        0
O        7.73836916      12.95775149      10.54381430  T        0
O        8.48820919      14.97313000       8.87933294  T        0
O        6.21932825      13.01349340      12.76426928  T        0
O        5.16451083      13.51838932      10.38816221  T        0
O       15.39402534      13.30336711       9.20321582  T        0
O       14.15509769       4.82903632      12.15009706  T        0
O       14.22319437      13.80079811       5.90824556  T        0
O       16.48746934       5.99226346      12.55298129  T        0
O       11.86909061      14.96611991       5.85262770  T        0
O       12.08876101      12.57239557       7.12720621  T        0
O        2.62588631      12.92987576      10.55735752  T        0
O       12.80197600      13.05131837       9.92764786  T        0
O        3.49989687      14.98750279       8.98382884  T        0
O       14.39134631      14.93160405      11.07075221  T        0
Si       8.36830762       8.56973073       8.89847967  T        0
Al       6.00015143       9.30038973      10.99272759  T        0
Si       4.33912814      11.13387637       7.33594065  T        0
Si      14.67040401      10.91773233      12.28041189  T        0
Si       7.57273865      11.15284733       7.09062951  T        0
Si      11.42766353       9.06178970       8.78577398  T        0
Si       3.64524669       8.46541007       9.06045840  T        0
Si      14.11106770       8.54097064      10.28422232  T        0
Si       8.40049539      16.60581266       9.07902762  T        0
Si       8.53570295      13.36819268       9.16177573  T        0
Si       6.24992626      12.58560166      11.18028889  T        0
Si      14.86176645       6.27431211      12.49795143  T        0
Si      12.60114600      13.48030941       5.88113562  T        0
Al      11.70947012      12.37703547       8.77542471  T        0
Si       3.79129143      13.44957613       9.50435341  T        0
Si      14.28942865      13.41289538      10.44316226  T        0
O       10.15007996      10.95552808      17.21344233  T        0
O       12.57339118      11.25295092      16.12222551  T        0
O       11.89696268      12.75420773      18.18198412  T        0
O       12.31367109      10.10688048      18.56184372  T        0
O       13.70499121      10.93745175      13.60750263  T        0
O       13.47835107       8.95553725      15.34196636  T        0
O        5.00266958      11.00259177      17.52231723  T        0
O       15.25888422      11.03902548      15.60956982  T        0
O        5.73972939       7.31359698      14.82984563  T        0
O        3.99178160       8.77002647      13.34017913  T        0
O       14.28124937       8.83820790      19.86090663  T        0
O        5.71172669       9.93354547      15.11826463  T        0
O       12.35496427       7.43092360      18.55098110  T        0
O        8.61020320      10.87330680      19.30245681  T        0
O       11.76721328       8.60990676      20.79040441  T        0
O        7.49325713      11.05686942      16.79859535  T        0
O        8.61155781       8.79061319      17.54268287  T        0
O        5.80609067      12.55493547      15.37481056  T        0
O       10.28331147       6.74189163      16.97564693  T        0
O       12.79243302       6.50215725      16.08939034  T        0
O       11.95214448       4.86748271      18.05343311  T        0
O       14.33145556       6.85457939      13.93389604  T        0
O        5.25728483       6.96070063      17.47992595  T        0
O       15.31650355       7.51118813      16.38285829  T        0
O        5.21497369      14.98281450      14.34077998  T        0
O        3.70615813      12.79655946      13.87934066  T        0
O        8.70605721       6.53156689      19.03876286  T        0
O        7.66402796       6.51981677      16.53990761  T        0
O        5.63461962       4.88575726      15.70598412  T        0
Si      11.73342193      11.24681988      17.54055862  T        0
Si      13.73722674      10.55798119      15.20223185  T        0
Si       5.46414093       8.72251943      14.06615265  T        0
Si      12.68429724       8.76669802      19.43444464  T        0
Si       8.69210405      10.41466061      17.72116972  T        0
Si       5.97677576      11.14620031      16.19414150  T        0
Si      11.82613793       6.38093307      17.41891888  T        0
Si      13.97297027       7.41801648      15.42110221  T        0
Si       5.24765614      13.35857516      14.05153513  T        0
Si       8.80747276       7.17220071      17.52898904  T        0
Si       6.08098265       6.40447321      16.15276894  T        0
H        7.84356088       6.72376138       7.45668423  F        0
H       11.77741500      11.82883679       4.45015372  F        0
H        3.46536401      10.58100877       5.26900439  F        0
H       16.04398914       8.93133647       8.84225548  F        0
H       16.97340651      10.80641058      12.75613404  F        0
H        7.69777211      18.11826613       7.44841170  F        0
H        8.50665683      10.58475679       4.91774357  F        0
H       12.20788617       8.97653229       6.55602501  F        0
H        1.92726146       8.79770260      10.59110356  F        0
H        4.51576461       6.77574371       7.71911054  F        0
H       10.76020324      17.16956735       9.31164421  F        0
H        6.74596320      16.92620537      10.74076342  F        0
H       15.75661379      12.42699387       9.00459924  F        0
H       14.42640568       4.01828351      12.61908764  F        0
H       14.91456245      13.24933472       6.30897701  F        0
H       17.11292418       6.48361095      13.10695602  F        0
H       12.17714149      15.71306863       6.40017283  F        0
H        1.73086689      12.60761804      10.35624453  F        0
H        4.05997682      15.72757570       9.28699687  F        0
H       14.11111957      15.72757569      10.59245558  F        0
H       12.25872463      13.00694285      19.04928406  F        0
H        4.05829635      10.79936776      17.66371281  F        0
H       15.58095515      11.20568437      16.50370227  F        0
H        3.12887899       8.92429365      13.74983426  F        0
H       15.03932990       8.88569483      19.24568334  F        0
H        7.89439933      10.75417195      19.94994328  F        0
H       11.59562866       9.14594745      21.58822472  F        0
H       11.61525895       4.01919395      17.70533654  F        0
H        4.34567170       7.30371036      17.50136906  F        0
H       15.83774429       6.73639486      16.63016865  F        0
H        5.67587981      15.71242072      13.88688066  F        0
H        2.98936131      13.24709329      13.39901228  F        0
H        8.00892554       6.80873427      19.65039775  F        0
H        5.99116592       4.00312854      15.91351272  F        0
Fe       8.38536284       9.20378054      12.31910130  T        0
Fe      10.19264632      11.32681320      10.83627912  T        1
O       10.28559816       9.79852525      12.21703617  T        2
O        9.40631509      10.95169284      12.64273864  T        3
