136
Lattice="24.397 0.0 0.0 0.0 24.397 0.0 0.0 0.0 24.397" Properties=species:S:1:pos:R:3:move_mask:L:1:tags:I:1 i=41 E=-6943.8331748197 regions="_JSON [\"Active\"]" n_terminators=30 energy=-930.093890837011 pbc="F F F"
O        9.45322111      14.68300669      -0.15870552  T        0
O       12.35923780       9.46471373       2.52659246  T        0
O       12.36571039      15.80258205       8.87236634  T        0
O        9.42453969      18.33124801       3.45954390  T        0
O       15.63076260       9.48364469       6.17583063  T        0
O       21.07172777      12.41304584       3.65444565  T        0
O       21.08075811      15.80033220       0.16631622  T        0
O        5.65057300       8.72286722       2.32695521  T        0
O       14.62475594       9.40976728      -0.04686134  T        0
O        9.37859958      12.24245700       2.66665612  T        0
O       15.80215367      12.36442470       8.86262822  T        0
O       18.37986058       9.44788776       3.43704999  T        0
O        9.46334772      15.62561306       6.19046218  T        0
O       12.41341762      21.07540513       3.65304391  T        0
O       15.77999111      21.05893782       0.14407911  T        0
O        8.78067715       5.71349764       2.44158162  T        0
O       11.39303405      13.78106951       1.87555767  T        0
O       13.78023158      11.61058372       1.74310040  T        0
O       18.99975445      16.63223498       1.74993667  T        0
O       16.64237481      19.00115998       1.74604877  T        0
O       10.37140020      10.39242866       1.06082199  T        0
O       11.25881936      16.57737487       4.40323916  T        0
O       13.99315493      18.94986767       4.40357525  T        0
O       13.95577583      16.63096485       6.79090935  T        0
O       18.94793314      13.99799804       4.39511928  T        0
O       16.69715300      11.28927218       4.49563058  T        0
O       16.62243197      13.96411336       6.78283018  T        0
O        7.76763393       7.72856998       0.99129618  T        0
O       11.89242130      11.87788941       3.61468812  T        0
O       12.06244905       8.74452165      -0.06902241  T        0
O        8.72253872      12.14050121       0.03315347  T        0
O       12.06622054      14.92136062       6.31390242  T        0
O       12.03078229      18.53224474       2.77716049  T        0
O       18.52867124      12.04588317       2.74069858  T        0
O       14.90903235      12.07498492       6.30066199  T        0
O        6.17215896       9.59969411      -0.16594130  T        0
O        9.67634827       6.11437622      -0.09115705  T        0
O       10.47716960      16.57556981       1.83778643  T        0
O       14.11038706      10.55932996       4.25290997  T        0
O       20.04629233      14.11456860       1.91757634  T        0
O       16.48143808      10.46245428       1.96777771  T        0
O       10.46232840      13.99536283       4.39412383  T        0
O       14.10971284      20.02182817       1.91252456  T        0
O        7.78429663      10.30186798       1.74834621  T        0
O       14.12316606      14.12471336       7.85247073  T        0
O       10.34854080       7.81283891       1.75924006  T        0
Al      10.74392118      15.18944865       0.87767317  T        0
Si      13.04473862      10.85898379       3.05986286  T        0
Si      19.67604877      15.36920789       0.93263807  T        0
Al      15.22840329      10.77652527       0.84366611  T        0
Si      10.75753679      12.96600565       3.17635439  T        0
Si      15.37126041      19.65835544       0.92960318  T        0
Si       9.03987035      11.27618377       1.36990466  T        0
Si      10.82785447      15.30101108       5.32183732  T        0
Si      13.13094298      19.65436816       3.18872427  T        0
Si      17.50925057      10.82077102       3.13540899  T        0
Si      15.37113870      13.13173632       7.45865278  T        0
Si       9.11835257       6.83790281       1.27714874  T        0
Si      11.29753416       9.07569115       1.32110023  T        0
Si      15.34713167      10.85888922       5.29961411  T        0
Si      19.65398104      13.13216057       3.18185031  T        0
Si      10.80646321      17.49536169       3.10867957  T        0
Si      13.13147934      15.37431560       7.46721159  T        0
Si       6.84271473       9.06178491       1.23521714  T        0
O       14.88603152      12.18609074      -2.78143028  T        0
O       14.71335115       8.82161459      -6.59050390  T        0
O        6.00915159      14.77217035      -3.46681955  T        0
O       15.67415346      18.29700012      -2.74559923  T        0
O       12.19844991      14.79667557      -2.64714796  T        0
O        8.84062579      14.78939629      -6.50003248  T        0
O       14.76545004       5.96901908      -3.44958159  T        0
O       18.35012465      15.64780029      -2.76987760  T        0
O       14.11023243      13.92296936      -0.93437748  T        0
O       13.22811429       7.85813152      -4.62427110  T        0
O        7.88342588      13.18618842      -4.61901658  T        0
O       16.55940853      16.51026997      -0.91300426  T        0
O       13.06376265      10.34271675      -1.98552122  T        0
O       10.32914660      12.96161410      -1.97817337  T        0
O       12.31727680      15.23507414       0.02455017  T        0
O       15.69948238      12.08563270      -0.19291009  T        0
O       12.20182161       9.80842386      -6.21846969  T        0
O       11.99827804       6.01904976      -3.42646015  T        0
O        5.99715970      12.00521815      -3.44909576  T        0
O        9.82575871      12.24828105      -6.26498995  T        0
O       18.53465749      14.92863867      -0.15787969  T        0
O       14.95053565      18.49111726      -0.14283344  T        0
O       12.34663697      12.31502007      -3.57872749  T        0
O       16.63299990      13.99007796      -1.82878358  T        0
O       14.01384132      10.41451394      -4.50481986  T        0
O        7.72433350      13.55265116      -1.94624663  T        0
O       14.00810900      16.53833636      -1.70060698  T        0
O       10.43874177      13.99288103      -4.46269898  T        0
O       13.58834651       7.72849456      -1.94647629  T        0
Si      15.41469340      12.98466552      -1.46647497  T        0
Si      13.53833008       9.20090286      -5.49144945  T        0
Si       6.89196955      13.38008991      -3.33957514  T        0
Si      15.32018761      17.47745552      -1.35876207  T        0
Si      13.13048344      15.21408716      -1.38700268  T        0
Si       9.22256858      13.55070881      -5.47255047  T        0
Si      13.39361597       6.88443242      -3.32745652  T        0
Si      17.53356372      15.28043054      -1.38982310  T        0
Si      13.37941276       9.05182703      -1.00030012  T        0
Si      11.30777873      13.49901619      -3.17457007  T        0
Si       9.05232433      13.36718922      -1.00501325  T        0
Si      13.56724422      11.29570944      -3.21207721  T        0
H       11.67124922      16.48560174       8.95913012  F        0
H        9.33839640      18.82463975       4.28720704  F        0
H       16.48559112       9.33840607       6.62628668  F        0
H       21.15750258      11.67126816       4.28721909  F        0
H       21.15749781      16.48550533      -0.52720743  F        0
H        5.57209183       7.91116076       2.85997479  F        0
H       16.48560162      11.67124930       8.95913012  F        0
H       18.82463962       9.33839646       4.28720704  F        0
H        9.33840600      16.48559124       6.62628668  F        0
H       11.67126808      21.15750273       4.28721909  F        0
H       16.48550522      21.15749796      -0.52720744  F        0
H        7.91116071       5.57209184       2.85997479  F        0
H       19.36967537      17.02670403       2.55489743  F        0
H       17.02670393      19.36967551       2.55489742  F        0
H       14.75328390      19.36965561       4.82834093  F        0
H       14.75330456      17.02669971       7.17128892  F        0
H       19.36965547      14.75328399       4.82834093  F        0
H       17.02669959      14.75330466       7.17128892  F        0
H        5.29994992       9.34387197      -0.50274702  F        0
H        9.34387190       5.29994996      -0.50274702  F        0
H       15.05832753       7.91114247      -6.62654864  F        0
H        5.57209393      15.05833723      -4.28746901  F        0
H       16.48557283      18.82464187      -2.86023677  F        0
H        7.91114242      15.05832763      -6.62654864  F        0
H       15.05833712       5.57209397      -4.28746900  F        0
H       18.82464171      16.48557294      -2.86023676  F        0
H       11.69567657       9.34382508      -6.89874716  F        0
H       11.69569900       5.29990410      -2.85482259  F        0
H        5.29990407      11.69569909      -2.85482259  F        0
H        9.34382502      11.69567665      -6.89874716  F        0
Fe      13.13165376      13.37259129       0.87983372  T        1
