147
Lattice="20.102 0.0 0.0 0.0 19.731 0.0 0.0 0.0 13.253" Properties=species:S:1:pos:R:3:move_mask:L:1:tags:I:1 i=77 E=-3472.0240129048 regions="_JSON [\"Active\"]" n_terminators=34 energy=-995.0173779291512 pbc="F F F"
O       10.21915839       8.62991149       9.72611980  T        0
O       10.03437616      11.55694661       3.84550722  T        0
O       -0.08517918       1.42413723      10.92091700  T        0
O        2.27139642      11.23770837       3.92461551  T        0
O        7.67809329       8.63026565      10.49928325  T        0
O        8.49556857       2.85754271       8.47995438  T        0
O        2.13979215      12.76973349       1.77377092  T        0
O        8.36573550       7.28006036       8.31491380  T        0
O        2.11187905      10.06983392       1.58217437  T        0
O        8.39202360       9.98099699       8.33681853  T        0
O        3.68988830      11.13632259       6.17044018  T        0
O        6.61917783       8.68696483      12.86741364  T        0
O        3.77512472       9.08654932       4.48011361  T        0
O        6.79872501      10.99023765      11.53175586  T        0
O        3.79935590       0.82633463       4.35277196  T        0
O        5.04944022       1.11247593      10.85869504  T        0
O        4.92785394      11.45675151       3.86780899  T        0
O        5.03210019       9.11693356      10.72396174  T        0
O        6.27292569       2.44526794       1.26132665  T        0
O        4.71441026      12.64913937       8.19717969  T        0
O        6.08413116       7.41063581       1.21423848  T        0
O        6.12468151      10.70350424       7.17932615  T        0
O        4.03568940       8.79718380       0.19893790  T        0
O        3.86818003      10.15661347       8.60285328  T        0
O        5.68280918       9.94094013       1.92313341  T        0
O        2.33803464       2.55938389       1.03449495  T        0
O        8.09049353      12.55302598       7.60818718  T        0
O        1.76894216       7.55558407       0.75120819  T        0
O        1.72268916       0.32140175      12.65715232  T        0
O        8.39061966      10.67122069       5.80618187  T        0
O        2.53897409       1.22590776      10.20864077  T        0
O        7.52563262      11.18703966       3.36510395  T        0
O        2.54182279       8.28773633      10.04586321  T        0
O        9.07353745       9.04746384       3.82669482  T        0
O        8.32734975       0.78286943       3.74253464  T        0
O        4.31099042       2.36836283       8.54271755  T        0
O        6.17829131      12.64227121       1.74600998  T        0
O        4.54620812       7.57238792       8.57728031  T        0
O       -0.26236683       6.92942771       2.85279648  T        0
O        0.05117021       2.65643159       2.53351320  T        0
O       10.41256644       2.50863882       3.78591725  T        0
O       10.25075598       6.64199072       3.54490358  T        0
O        2.24596563       7.02966938       3.63897692  T        0
O        2.43519131       3.03856097       3.68722895  T        0
O        1.47659504       4.85205572       1.97484385  T        0
O        3.63352953       6.77159141       5.85654555  T        0
O        3.77057724       3.00754183       5.94601317  T        0
O        4.92503715       6.88164973       3.52624137  T        0
O        5.14257557       2.99079210       3.66828481  T        0
O        4.26914925       4.86224326       7.56498185  T        0
O        6.38998873       6.64156546       6.59019846  T        0
O        6.30329671       3.16474037       6.92821046  T        0
O        8.36365679       4.94759627       7.00034226  T        0
O        8.83615793       7.22135699       5.72683244  T        0
O        8.61583327       2.56189373       5.79588981  T        0
O        7.61445146       6.86519754       3.35024276  T        0
O        7.79691325       3.24564798       3.34509168  T        0
O        6.16631685       4.94851346       2.19830487  T        0
Si       1.59577437      11.35966365       2.43527212  T        0
Si       8.66027773       8.62303289       9.19962789  T        0
Si       3.66950037      10.72257817       4.59532712  T        0
Si       6.51094442       9.36723733      11.37584881  T        0
Si       4.59460641      11.14610809       7.53144515  T        0
Si       5.58076192       8.88610428       0.70506872  T        0
Si       7.73872884      10.99029547       7.24957726  T        0
Si       2.42118899       8.99385251       0.39810153  T        0
Si       1.29973366       0.54437522      11.07334164  T        0
Si       8.75827497      10.60063168       4.22608315  T        0
Si       4.03619013       1.10210565       9.55796689  T        0
Si       6.06104632      11.31775937       2.69980340  T        0
Si       4.01159657       8.77384508       9.48734168  T        0
Al       1.40412469       6.57287408       2.09879092  T        0
Si       1.54993856       3.28016672       2.29712613  T        0
Si       3.66879760       7.47270518       4.36475480  T        0
Si       3.79193574       2.44100455       4.36436981  T        0
Al       4.80317120       6.57020352       7.22503681  T        0
Si       4.73961066       3.31657428       7.29808408  T        0
Si       7.95590220       6.53838567       6.92022597  T        0
Si       7.93857125       3.38918273       7.02777864  T        0
Si       8.92865748       7.44958541       4.11571579  T        0
Si       8.82910927       2.29164540       4.18674713  T        0
Si       6.21731272       6.53198939       2.58471220  T        0
Si       6.33907044       3.37889985       2.61006216  T        0
O        6.57294537       9.48280110      -0.45282853  T        0
O        1.78671230       9.69039321      -0.94957370  T        0
O        2.03771767      -1.20754910       4.01878546  T        0
O        3.58730318      -1.13213137       6.12850933  T        0
O        4.62071885      -1.61453914       3.59070950  T        0
O        4.56558816      -2.79485851       8.05121523  T        0
O        6.03679679      -0.90384677       6.73579218  T        0
O        4.17504537      -0.25368996       8.64882017  T        0
O        0.90045333      -0.91676851      10.43691549  T        0
Si       3.54600673      -0.78258237       4.52324178  T        0
Si       4.58209161      -1.26966045       7.42515146  T        0
O       -0.03018485      11.33933855       2.65640470  T        0
O       -2.28082650       1.50814866       9.34845211  T        0
O       -2.43609841       2.30246956      11.98052850  T        0
O       -2.25277694      -0.25047900      11.28014696  T        0
O       -1.55693683      11.06594105       0.62547463  T        0
O       -2.68175554      11.64325764       3.06401712  T        0
O       -1.81428862       0.73267130       2.95388480  T        0
O       -1.66047741       9.21626899       2.69627942  T        0
O       -2.06796470       2.30683931       0.84972762  T        0
O       -1.69504689       7.60208863       0.65670079  T        0
O       -2.33093175       3.33285349       3.40934377  T        0
O       -3.00444529       6.85573963       2.81705999  T        0
Si      -1.74039320       1.26831379      10.89323496  T        0
Si      -1.51946824      10.79946241       2.24701890  T        0
Si      -1.53643302       2.26622841       2.41829250  T        0
Si      -1.65835346       7.64237109       2.29799855  T        0
H       10.95532307       8.85008497       9.12727255  F        0
H       10.94686465      11.30097846       4.04088346  F        0
H        8.32487049       1.96348467       8.80281458  F        0
H        2.20758188      13.00694286       0.83020008  F        0
H        6.01931354       8.91222751      13.59787507  F        0
H        6.45001595      11.67065412      10.93294989  F        0
H        5.99284639       0.93401564      11.03719697  F        0
H        5.69664664       1.68513527       1.05659762  F        0
H        4.03182275      12.92715973       8.82439874  F        0
H        2.35337064       1.61243811       0.82192755  F        0
H        8.21123678      12.90527891       8.50458507  F        0
H        2.15673526       0.88881695      13.32343299  F        0
H        1.92726146       8.79770260      10.59110356  F        0
H        8.57917594      -0.10444883       4.04180490  F        0
H        5.53537813      12.95496052       1.09262639  F        0
H       11.09748793       3.17088023       4.02620164  F        0
H       11.09748793       6.69447189       4.02620164  F        0
H        6.58577874       9.14969547      -1.35751146  F        0
H        1.54448592       9.14594745      -1.70877228  F        0
H        1.81269882      -1.43617684       3.09859994  F        0
H        5.52981240      -1.34062802       3.37578188  F        0
H        4.03182274      -3.06210338       8.82439872  F        0
H        6.92226376      -0.94135423       7.12331841  F        0
H        1.38462403      -1.74328892      10.56602328  F        0
H       -2.97931980       0.98668894       8.89410918  F        0
H       -2.20729639       3.14159074      12.42276822  F        0
H       -2.29167719      -0.57216837      12.19336740  F        0
H       -2.15644976      10.75416907      -0.07046469  F        0
H       -3.49783775      11.30937631       3.49139018  F        0
H       -1.47168132      -0.10444883       2.58467926  F        0
H       -2.04192549       3.05661076       0.22907734  F        0
H       -2.04192548       6.80874135       0.22907734  F        0
H       -3.26882833       3.33840098       3.69123276  F        0
H       -3.26882835       6.52695112       3.69123277  F        0
Fe       0.48716795       6.36605292       4.63359881  T        0
Fe       2.59227165       4.94474368       6.29264894  T        1
O        0.80689104       5.28745115       6.04215533  T        2
