141
Lattice="19.123 0.0 0.0 0.0 14.277 0.0 0.0 0.0 7.5465" Properties=species:S:1:pos:R:3:move_mask:L:1:tags:I:1 i=128 E=-2603.9155142701 regions="_JSON [\"Active\"]" n_terminators=34 energy=-945.1699305325935 pbc="F F F"
O        6.13349788       1.11638504       1.50859615  T        0
O       15.63884694       8.51912543       5.89279457  T        0
O       13.08624106       1.12782119       1.43847560  T        0
O        3.39241594       8.43269022       5.85040376  T        0
O        6.26967205      13.10061018       1.77267741  T        0
O       15.73665505       5.83770243       5.83465052  T        0
O       13.02928883      13.14270921       1.48582180  T        0
O        3.31856728       5.73219147       5.85344084  T        0
O       12.84942921      13.10454180       5.75414935  T        0
O        3.68481154       5.84909807       1.90961340  T        0
O        5.96098727      13.15462247       6.14117239  T        0
O       15.74850667       5.79321364       1.73877386  T        0
O       12.98151292       1.31735450       5.25695388  T        0
O        3.50145460       8.53513921       1.68635533  T        0
O        6.16986915       1.16217746       5.94995027  T        0
O       15.72743515       8.49552675       1.70967471  T        0
O        7.23443931       3.43653894       2.46128361  T        0
O       17.13312982      10.77397525       6.11731743  T        0
O       11.92504931       3.37801475       2.51795838  T        0
O        1.97533148      10.73399557       6.13227448  T        0
O        7.21975166      10.59261982       2.35889466  T        0
O       17.14828995       3.52990243       6.13242578  T        0
O       11.84962883      10.87037708       2.46292539  T        0
O        1.97425723       3.38861683       6.05081372  T        0
O       11.88139930      10.68360541       5.09791552  T        0
O        2.07337202       3.87671647       1.15398372  T        0
O        7.19674915      11.01234896       5.01417598  T        0
O       17.14277996       3.48340387       1.45179951  T        0
O       11.88815417       3.66156069       5.17762677  T        0
O        1.96791585      10.77238650       1.44364248  T        0
O        7.24177959       3.52381954       5.08986713  T        0
O       17.11164885      10.81817896       1.45410559  T        0
O        6.66607874       3.24311818      -0.04830435  T        0
O       16.04600306      10.15364374       3.79238712  T        0
O       12.44878911       3.23522043      -0.04497726  T        0
O        3.01359505      10.11661992       3.79171555  T        0
O        6.60031077      11.02155103      -0.02447870  T        0
O       16.04118212       4.10212619       3.80278734  T        0
O       12.43332314      11.04541094      -0.05306143  T        0
O        2.98741501       4.07487491       3.73123410  T        0
O        4.64152415       3.33093414       1.77156246  T        0
O       14.46727211      10.94058068       5.81106857  T        0
O       14.47546352       3.42811530       1.74971035  T        0
O        4.65464067      10.80783562       5.76702330  T        0
O        4.61071930      10.96894242       1.82157169  T        0
O       14.46644256       3.49409339       5.92000210  T        0
O       14.43913974      10.85379783       1.78036993  T        0
O        4.65084219       3.39092575       5.71371922  T        0
O       11.29386461       8.46878523       3.62876396  T        0
O        7.68740120       8.56039470       3.88813395  T        0
O       11.28298724       5.78979830       3.60686603  T        0
O        7.85971543       5.78025755       3.66739815  T        0
O        9.54268713      10.47979077       3.77873225  T        0
O        9.57782144       3.77888972       3.76573820  T        0
O       13.48629361       7.11053801       5.10042124  T        0
O        5.50174871       6.98879904       5.03557403  T        0
O        5.87349537       7.41489376       2.15763652  T        0
O       13.47303030       7.12983335       2.20873761  T        0
O       14.57204928       7.11658520      -0.24311346  T        0
O        4.69411487       7.09500119      -0.22141347  T        0
Si       6.14724839       2.76864416       1.44107378  T        0
Si      15.80967451      10.07760079       5.41547164  T        0
Si      13.00994571       2.77895245       1.44032470  T        0
Si       3.26737490      10.00615905       5.41692261  T        0
Si       6.10731783      11.49071164       1.48717771  T        0
Si      15.83993979       4.25243876       5.42741288  T        0
Si      12.97234664      11.48821021       1.44154094  T        0
Si       3.25129036       4.16770925       5.35703884  T        0
Si      12.94444433      11.47806400       6.06530107  T        0
Si       3.34404850       4.25402805       2.14154067  T        0
Si       6.08307439      11.50839715       6.12458605  T        0
Si      15.84734235       4.21702937       2.17390593  T        0
Si      12.99946359       2.78622322       6.02599959  T        0
Si       3.26224299      10.07925807       2.18293789  T        0
Si       6.13890320       2.81439308       6.07776524  T        0
Si      15.82539257      10.06412500       2.16781306  T        0
Si      11.16649809      10.11139603       3.74133684  T        0
Si       7.94752948      10.17048023       3.85034505  T        0
Si      11.18776582       4.13163737       3.76822193  T        0
Si       7.97038290       4.12420571       3.75560467  T        0
Si      14.74838155       7.13998306       6.09826676  T        0
Si       4.28164182       7.05514808       6.08738392  T        0
Si       4.41601403       7.20565750       1.38703610  T        0
Si      14.85274441       7.13369083       1.37894975  T        0
Al      12.53418198       7.14081280       3.66671155  T        0
Al       6.65878363       7.10098678       3.79085837  T        0
O        6.64167736       3.24372052       7.58440150  T        0
O       12.55026520       2.58141024       7.60492821  T        0
O        6.66090226      11.04427309       7.58919656  T        0
O       12.39945035      11.14851569       7.58623826  T        0
O       14.12979420       7.07697807       7.63551728  T        0
O        4.93551979       7.05376261       7.60347351  T        0
O       15.85807221       8.42213891      -2.27923409  T        0
O        3.19360487       8.40906703      -2.03145239  T        0
O       15.81100620       5.84108050      -2.32377815  T        0
O        3.69198642       5.76538847      -2.40377661  T        0
O       11.66469343       8.53918149      -4.18590786  T        0
O       11.37124503       5.89151132      -3.80999998  T        0
O       13.46954971       7.19367976      -2.64464742  T        0
O        5.65805480       7.63781557      -2.64080131  T        0
O       13.38116875       6.79938864      -5.33497365  T        0
Si      14.90290418       7.13932087      -1.83835446  T        0
Si       4.29806987       7.18717811      -1.81892584  T        0
Si      12.49061696       7.11410340      -3.96586841  T        0
H        5.61083456       0.52083913       2.07985367  F        0
H       13.50938118       0.51971906       2.07492992  F        0
H        5.61112307      13.75835362       2.07975607  F        0
H       13.50958039      13.75682243       2.07498241  F        0
H       13.51084140      13.75504172       5.44776650  F        0
H        5.62495998      13.75277707       5.44935724  F        0
H       13.50975252       0.52161770       5.44778410  F        0
H        5.62509051       0.52255101       5.44942550  F        0
H       17.28974254      11.12548174       7.01862795  F        0
H        1.83343022      11.12554006       7.01950242  F        0
H       17.28979000       3.14560285       7.02339196  F        0
H        1.81954193       3.15353441       6.98813474  F        0
H        1.83183800       3.14857954       0.53722786  F        0
H       17.29134854       3.14797220       0.53999843  F        0
H        1.83154049      11.12909684       0.54034962  F        0
H       17.29120144      11.12876736       0.54010345  F        0
H        6.35952436       2.97904956      -0.93427223  F        0
H       12.76076393       2.97683097      -0.93375646  F        0
H        6.36236324      11.29726414      -0.93275871  F        0
H       12.76174962      11.29928001      -0.93393629  F        0
H        6.35949513       2.97597070       8.47938261  F        0
H       12.76321398       2.97604733       8.47995589  F        0
H        6.35946036      11.30224636       8.48133548  F        0
H       12.76333233      11.30075111       8.47967776  F        0
H       14.61405599       7.13800201       8.47661577  F        0
H        4.50898861       7.14016697       8.47499567  F        0
H       15.75671561       9.37610020      -2.09181162  F        0
H        3.36611374       9.37433505      -2.09115109  F        0
H       15.75636517       4.89339805      -2.09021006  F        0
H        3.36064390       4.89097090      -2.09366187  F        0
H       11.31595404       9.37380971      -3.78414466  F        0
H       11.31540413       4.90177526      -3.78397907  F        0
H        6.23944212       7.13797332      -3.24031999  F        0
H       14.25080708       7.13791561      -5.64139813  F        0
Fe       7.48888032       8.57451174       1.44712078  T        0
Fe       9.72377329       7.00031934       2.91784138  T        1
O        9.04164554       7.66334229       1.31244437  T        2
