141
Lattice="19.123 0.0 0.0 0.0 14.277 0.0 0.0 0.0 7.5465" Properties=species:S:1:pos:R:3:move_mask:L:1:tags:I:1 i=128 E=-2603.9155142701 regions="_JSON [\"Active\"]" n_terminators=34 energy=-943.9831185757101 pbc="F F F"
O       15.70646861       8.36701788       5.55343180  T        0
O       12.98305819       1.11470294       1.50797494  T        0
O       15.60920092       5.72540890       5.63611566  T        0
O       13.13448496      13.12391491       1.44424787  T        0
O       12.75344104      13.14283312       5.43694445  T        0
O       15.54656972       5.80814846       2.02517558  T        0
O       12.67731002       1.02339235       5.54625062  T        0
O       15.74874370       8.39946654       1.90938402  T        0
O       17.01133302      10.94741888       6.29660212  T        0
O       11.92063010       3.44557860       2.50403541  T        0
O       17.18392603       3.67025454       6.21460275  T        0
O       11.84344041      10.87179047       2.46210653  T        0
O       11.56853135      10.81671527       5.13974478  T        0
O       17.00733566       3.96340578       0.98376361  T        0
O       11.65970577       3.49358289       5.15273940  T        0
O       16.97149006      10.75466966       1.21269371  T        0
O       16.33603127      10.07874231       3.68071664  T        0
O       12.34487957       3.16532785      -0.07079968  T        0
O       16.15807287       3.79372704       3.59664951  T        0
O       12.66604451      11.16220467      -0.10689446  T        0
O       14.20699702      10.86934482       5.55423083  T        0
O       14.44753113       3.37220011       1.59503572  T        0
O       14.27339847       3.11461407       5.77390115  T        0
O       14.39049004      10.75596333       1.88573104  T        0
O       11.49671453       8.51192830       3.76944337  T        0
O       11.52450494       5.79530356       3.72971837  T        0
O       17.30496293      13.13377791      -0.11767847  T        0
O        9.48815128      10.32120652       3.43126482  T        0
O        9.51919087       3.95575559       3.51395739  T        0
O       13.38756365       7.11597709       5.07240699  T        0
O       13.35589366       7.25814243       2.37913236  T        0
O       14.46235747       7.07731882      -0.07549847  T        0
Al      15.76532641      10.17994225       5.39446345  T        0
Si      12.93518685       2.76250836       1.41523258  T        0
Al      15.63838782       3.95802067       5.24769827  T        0
Si      12.97720942      11.48590362       1.46105007  T        0
Si      12.80560035      11.55806257       5.94677828  T        0
Si      15.78553885       4.17714876       2.07017944  T        0
Si      12.75701498       2.61600437       6.01783462  T        0
Si      15.82633786      10.07763516       2.12806946  T        0
Si      11.09224950      10.11770225       3.72848575  T        0
Si      11.13187528       4.18291465       3.74518185  T        0
Si      17.56525877      11.50593750      -0.13026670  T        0
Si      14.74974087       7.09616887       5.97249627  T        0
Si      14.73239742       7.11522659       1.52093420  T        0
Si      12.42426745       7.16476416       3.74100511  T        0
O       21.70108983      11.09026524       8.92130597  T        0
O       21.32895461      13.00026563       7.05992089  T        0
O       19.18065844       3.06948885       7.90950117  T        0
O       19.28312939      11.35873373       7.67765047  T        0
O       24.08731523       6.99406630       7.61171473  T        0
Si      20.92575856      11.46549583       7.49888995  T        0
O       22.98145179       8.45359051       5.61643365  T        0
O       22.47727594       5.83717505       5.71886743  T        0
O       22.43895627       8.38729203       1.53204016  T        0
O       21.49713047      10.53841560       6.24257673  T        0
O       21.54673920      10.81308603       1.14356973  T        0
O       22.24797808      10.10906380       3.62979005  T        0
O       24.04143911      10.96323150       5.21253289  T        0
O       24.20580580      10.31581733       1.68037334  T        0
O       20.90228337      13.18471892      -0.01367275  T        0
O       19.18562948      11.26510053      -0.15994881  T        0
O       25.01180154       6.72494578       5.12866427  T        0
Si      22.68271334      10.02171109       5.21677760  T        0
Si      22.62609212       9.95021945       2.03146043  T        0
Si      20.81563233      11.54318980      -0.14230128  T        0
Si      23.62863018       7.00169880       6.00983953  T        0
O       21.50066877      11.07613015      -1.57320548  T        0
O       12.84551909       1.20672486       9.81904297  T        0
O       12.84838968      13.04950241       9.76229426  T        0
O       15.54482517       5.80759465       9.57235249  T        0
O       15.55683160       8.47386116       9.60089560  T        0
O       11.47866549       3.48941680       9.93828616  T        0
O       11.61281519      10.67374358       9.89591462  T        0
O       16.73988910       3.48249135       8.83888809  T        0
O       16.95035445      10.72293178       8.92070893  T        0
O       16.25083438      10.41448645      11.38268943  T        0
O       12.42604378       2.75589471       7.62090338  T        0
O       16.17856602       3.84955360      11.35704333  T        0
O       12.56120740      11.46178611       7.57421834  T        0
O       14.16962665       3.53391161       9.53573614  T        0
O       14.31798098      10.80855721       9.49495531  T        0
O       17.25021817       1.20211194       7.38012402  T        0
O       17.31314895      13.19202952       7.82891369  T        0
O       13.17298835       7.13248074       9.84100734  T        0
O       14.39599412       7.16060822       7.56044647  T        0
Si      12.76069605       2.74914492       9.22375930  T        0
Si      12.85809667      11.49327245       9.18988572  T        0
Si      15.63410468       4.18449449       9.83670547  T        0
Si      15.75407620      10.10130618       9.84311358  T        0
Si      17.57674826       2.81049714       7.59920951  T        0
Si      17.62904338      11.56069789       7.65430214  T        0
Si      14.68113348       7.15410022       9.17454913  T        0
O       15.51981719       8.46829741      -2.08883788  T        0
O       15.72442960       5.86645745      -2.20523191  T        0
O       12.81404102      13.06805646      -2.08721884  T        0
O       16.82538212      10.74883969      -1.38193020  T        0
O       11.54481222      10.73772227      -2.39196861  T        0
O       16.35864103      10.33284334      -3.86907472  T        0
O       14.27116971      10.80761416      -2.21890807  T        0
O       13.20935586       7.00559587      -2.33106947  T        0
Si      15.72227597      10.07419658      -2.37666980  T        0
Si      12.85698310      11.45921582      -1.71325406  T        0
Si      14.73206878       7.08401193      -1.69887136  T        0
H       13.50938118       0.51971906       2.07492992  F        0
H       13.50958039      13.75682243       2.07498241  F        0
H       13.51084140      13.75504172       5.44776650  F        0
H       13.50975252       0.52161770       5.44778410  F        0
H       17.29134854       3.14797220       0.53999843  F        0
H       12.76076393       2.97683097      -0.93375646  F        0
H       16.56020813      13.76127004      -0.00066979  F        0
H        8.59739021      10.07362933       3.76217937  F        0
H        8.59637561       4.20354031       3.76204115  F        0
H       22.00483182      10.29715766       9.41435165  F        0
H       21.68557806      13.76129914       7.54737584  F        0
H       20.08726577       2.93486642       7.54597012  F        0
H       23.63198861       7.14016697       8.47499567  F        0
H       22.48364390       4.89097090       5.45283813  F        0
H       23.06957714       7.66254159       1.68550051  F        0
H       24.76092223      11.11473374       5.84604825  F        0
H       24.75845825      11.12041654       1.68709931  F        0
H       21.68557806      13.76129914       0.00087584  F        0
H       25.36244212       7.13797332       4.30618001  F        0
H       22.00608000      10.28902905      -1.85963567  F        0
H       13.50938118       0.51971906       9.62142992  F        0
H       13.50958039      13.75682243       9.62148241  F        0
H       11.39369377       3.98884644      10.77146895  F        0
H       11.39439525      10.28733182      10.77116771  F        0
H       15.92688062      10.11457984      12.25007275  F        0
H       15.92754156       4.15729643      12.25107281  F        0
H       16.56036088       0.51548555       7.54573787  F        0
H       16.56020813      13.76127004       7.54583021  F        0
H       12.88235039       7.13795337      10.76981689  F        0
H       15.75636517       4.89339805      -2.09021006  F        0
H       13.51084140      13.75504172      -2.09873350  F        0
H       11.39521725      10.28762784      -3.24237523  F        0
H       15.92569105      10.11584057      -4.70878458  F        0
H       12.88191441       7.13773895      -3.23957932  F        0
Fe      16.96540608       8.04579360       3.83623031  T        0
Fe      17.74796663       5.52816625       5.50216056  T        0
O       18.25491212       6.86125634       4.39362273  T        0
