142
Lattice="20.102 0.0 0.0 0.0 19.731 0.0 0.0 0.0 13.253" Properties=species:S:1:pos:R:3:move_mask:L:1:tags:I:1 i=77 E=-3472.0240129048 regions="_JSON [\"Active\"]" n_terminators=36 energy=-941.9207796103065 pbc="F F F"
O       10.13231803      18.89045942       4.02022601  T        0
O       10.16689617      11.22759928       4.20917236  T        0
O        2.29969899      11.35953065       3.94352312  T        0
O        2.27678226      18.26155107       3.95686580  T        0
O       12.38619808      18.17968250       2.72962532  T        0
O       12.46530585      11.01691344       2.84160456  T        0
O       11.84267510      17.25178790       5.15998200  T        0
O       12.06724044      12.74677888       4.94951641  T        0
O        8.43513274       9.92920298       8.61604069  T        0
O       12.58016494      19.85186151       4.74225775  T        0
O       12.50032269      10.23859292       5.42574122  T        0
O        3.79036422      10.63022746       6.01106200  T        0
O        3.82815052      19.02186492       5.97114775  T        0
O       13.75955314      11.15156924       0.51840483  T        0
O        5.87259347      19.15364402      10.82998452  T        0
O        3.20444118       8.88071409       3.97107408  T        0
O        5.97144119      10.51863951      10.76010269  T        0
O       13.61498765       8.80462557       1.69580886  T        0
O        4.95349109      10.91060064       3.64944380  T        0
O        4.91578053      18.68340437       3.57225429  T        0
O       15.09598914      10.78309777       2.85633793  T        0
O        4.07885246      12.23161761       8.12271103  T        0
O        4.17026920      17.39038073       8.04285693  T        0
O        6.05039533      10.54330990       7.42634633  T        0
O        6.09066909      19.12849888       7.37846510  T        0
O        3.75320977       9.51100160       8.38108786  T        0
O        6.46819977       9.58925536       1.81908980  T        0
O        3.77972544      20.11323125       8.35440951  T        0
O       16.49491734       9.71379740       4.87636955  T        0
O        7.92703012      12.38739313       7.97283594  T        0
O        7.81636415      17.14331258       8.00141316  T        0
O        8.28539225      10.61129053       6.01231518  T        0
O        8.36806281      18.70540952       6.02325558  T        0
O        7.62109094      11.11641844       3.49609673  T        0
O        7.58127749      18.42073187       3.49728730  T        0
O       17.67812302      11.49384654       3.27657880  T        0
O        9.20746781       8.89123190       4.16178017  T        0
O       11.71204714      10.55071725       9.75198574  T        0
O       11.95832355      19.07972362       9.63912501  T        0
O        6.03488712      12.26281846       1.61566952  T        0
O        6.04926743      17.27824296       1.60639054  T        0
O       16.06287312      17.02760517       4.56516597  T        0
O       15.85224288      12.38628514       4.87380995  T        0
O        9.99832368      17.15866857       9.73022111  T        0
O        9.90719467      12.60884307       9.78532814  T        0
O        7.29877967      16.80416671      10.83264452  T        0
O        7.40204714      12.84774466      10.56610437  T        0
O        8.42849635      14.76242225       8.96152312  T        0
O        5.76436127      17.48848888      12.92059998  T        0
O        6.10053970      12.18445703      12.82705046  T        0
O       16.85184469      12.73137756       7.36420786  T        0
O       16.58440872      17.19635451       7.20694666  T        0
O        4.61892885      16.85429259      10.60210714  T        0
O        4.73659605      12.85059275      10.60442887  T        0
O        5.36311771      14.78321626       0.88420724  T        0
O       16.06654682      14.84844071       5.90650482  T        0
O        3.74386458      16.90053680       0.41806571  T        0
O        3.73423554      12.67865345       0.41667103  T        0
O       14.29868591      13.13236290       6.91690247  T        0
O       14.10439111      16.60768300       6.44934254  T        0
O       12.02650872      14.91615664       6.33564768  T        0
O       11.64715956      12.45008022       7.79939796  T        0
O       11.87596780      17.14319706       7.81052960  T        0
O        2.13189470      16.55428616       9.58540954  T        0
O        2.18493241      13.26496416       9.80539062  T        0
O       12.36402497      13.05305529      10.38513528  T        0
O       12.38622015      16.58470347      10.43856879  T        0
O        4.05329848      14.83707512       8.90392822  T        0
Si      11.72106157      18.55742471       4.18192767  T        0
Si      11.80010600      11.24063730       4.31683310  T        0
Si       3.57623294      10.43156119       4.40322154  T        0
Si       3.57369602      19.18576350       4.36727717  T        0
Si      13.75907244      10.42428901       1.99436841  T        0
Si       4.42386223      10.74448427       7.51416757  T        0
Si       4.46376632      18.90070404       7.47156087  T        0
Si       7.64588628      10.84407868       7.48970375  T        0
Si       7.65565200      18.71255528       7.48719195  T        0
Si       8.75069474      10.44434769       4.46181102  T        0
Si       8.60534717      19.21473193       4.49329366  T        0
Si       6.22802136      10.99908974       2.64247409  T        0
Si       6.21846884      18.56560495       2.60457806  T        0
Si      16.25454313      11.08389426       3.97991196  T        0
Al       8.43460091      16.48618262       9.58543483  T        0
Si       8.44602055      13.13951938       9.34587066  T        0
Si       5.93961297      17.55111720      11.27826182  T        0
Si       6.07278612      12.11719742      11.18334094  T        0
Si       5.31718051      16.36663744       0.46370687  T        0
Si       5.31253805      13.19881980       0.47693300  T        0
Si      15.76133981      13.27708570       6.24906563  T        0
Si      15.68935023      16.42987003       6.04708823  T        0
Al      12.62768999      13.23216594       6.62458921  T        0
Si      12.48416374      16.49496712       6.46002619  T        0
Si      11.43484985      12.13971512       9.37425930  T        0
Si      11.52381855      17.50194931       9.38723630  T        0
Si       3.74191359      16.41483334       9.29484357  T        0
Si       3.76131540      13.27865344       9.35061586  T        0
O        8.47847020      19.68049602       8.55027771  T        0
O        3.20894368      20.73483141       3.92555023  T        0
O        6.48323660      19.93989690       1.73078479  T        0
O        8.33811231      20.83793835       4.59151158  T        0
O        6.06385377      16.44509887      -1.00056777  T        0
O        6.07489471      13.13524131      -0.97734518  T        0
H        1.81269882      11.30123319       3.09859993  F        0
H        1.81269882      18.29482316       3.09859994  F        0
H       13.03074803      18.74401529       2.26762503  F        0
H        8.32625906       8.98649408       8.81306681  F        0
H       12.34310542      20.30287261       5.56688324  F        0
H       12.34314048       9.29328245       5.56696388  F        0
H       14.08297195      10.81847671      -0.34490677  F        0
H        6.59189912      19.77694965      11.03822749  F        0
H        3.60112680       8.06005012       4.30646574  F        0
H        6.59189033       9.81912404      11.03827922  F        0
H       13.65226955       8.06005012       2.32001841  F        0
H        4.11249823       9.08086468       9.18193973  F        0
H        5.72719027       9.20254625       1.33756862  F        0
H        4.11250309      20.51523557       9.18186357  F        0
H       15.77833301       9.20254623       5.28891552  F        0
H       18.17502404      10.93300163       2.66186473  F        0
H        8.66651872       8.12235896       3.93953912  F        0
H       11.52310774       9.76092419       9.21110646  F        0
H       11.52310955      19.83515307       9.21116341  F        0
H       15.87290964      17.87210703       4.12309272  F        0
H        5.86807409      16.61444052      13.33116226  F        0
H        5.86807409      12.98161584      13.33116226  F        0
H       16.41758072      12.40218664       8.16986141  F        0
H       16.41758072      17.19386972       8.16986141  F        0
H        2.98936131      16.34896307       0.14601228  F        0
H        2.98936131      13.24709329       0.14601228  F        0
H        1.73086688      16.98843832      10.35624453  F        0
H        1.73086689      12.60761804      10.35624453  F        0
H       13.32025657      13.20375310      10.31771692  F        0
H       13.32025658      16.39230324      10.31771692  F        0
H        8.32625906      20.60985804       8.81306681  F        0
H        3.60112680      21.53630199       4.30646574  F        0
H        5.72719026      20.39380587       1.33756863  F        0
H        8.66651872      21.47399316       3.93953912  F        0
H        6.36643797      17.19386972      -1.54340896  F        0
H        6.36643797      12.40218664      -1.54340896  F        0
Fe      10.56292629      14.15274252       5.03226053  T        0
Fe       8.24291580      15.40906590       6.97039411  T        1
O        8.56597700      14.07849560       5.50056316  T        2
O        9.01705356      15.45753330       5.06285913  T        3
