141
Lattice="24.397 0.0 0.0 0.0 24.397 0.0 0.0 0.0 24.397" Properties=species:S:1:pos:R:3:move_mask:L:1:tags:I:1 i=41 E=-6943.8331748197 regions="_JSON [\"Active\"]" n_terminators=32 energy=-955.7268885314822 pbc="F F F"
O       21.68915608       2.51774796       0.09663201  T        0
O       21.86273084       5.98333080       3.63518204  T        0
O       15.67787318       9.82042412       6.21827972  T        0
O       20.83113468      12.34871892       3.63360171  T        0
O       20.83383793       3.63913387      12.34732996  T        0
O       15.71882411       6.18270586       9.79163836  T        0
O       21.87886665      -0.04437672       2.53492399  T        0
O       18.27397845       9.81279463       3.56662505  T        0
O       21.79445138       3.50319702       6.02523208  T        0
O       18.28899893       3.55052912       9.78333033  T        0
O       23.78918487       1.69528552       1.85380181  T        0
O       22.66398429       5.20378696       7.95281600  T        0
O       22.81388296       8.04853195       5.49249512  T        0
O       17.67549246      10.52780613       7.90109083  T        0
O       20.14783104      10.49455405       5.37937932  T        0
O       18.87357922       4.27823894      14.12940714  T        0
O       16.29866493       4.16225623      11.48107217  T        0
O       23.70563514       4.18543333       4.27157684  T        0
O       18.87056498      14.14688123       4.26305596  T        0
O       16.26897684      11.48759511       4.15985042  T        0
O       17.67295308       7.89303141      10.52928902  T        0
O       20.17208672       5.36851655      10.45146439  T        0
O       20.83961468       5.87013629       6.04315231  T        0
O       18.16236740       8.81877625       6.03191073  T        0
O       22.02434004      12.33971758       6.07863151  T        0
O       18.32259748       2.59254394      12.26145215  T        0
O       14.62052755       6.13277838      12.27737486  T        0
O       20.96671933      -0.04773429       0.00938943  T        0
O       24.32243802       2.62508292       6.35301306  T        0
O       24.37480521       6.21157048       2.64114459  T        0
O       18.30249058      12.28300531       2.59488395  T        0
O       14.60501000      12.30377906       6.12889106  T        0
O       18.20587557       6.02925430       8.78268759  T        0
O       22.01190864       6.09591378      12.31739102  T        0
O       22.66917558       4.29265504       1.79727286  T        0
O       13.80045143      10.42350060       4.42883181  T        0
O       16.58837535       1.66649232      10.41064840  T        0
O       22.66203249       4.37691727      10.49127342  T        0
O       20.06300754       8.02263715       4.38091061  T        0
O       16.56941712       8.04140043       8.04218502  T        0
O       22.67054626      10.49657734       4.38053318  T        0
O       20.20618727       1.84079133      14.08668572  T        0
O       20.20764573      14.08093002       1.83213138  T        0
O       13.83125009       4.41069802      10.40725958  T        0
O       16.58593043      10.41528101       1.67098127  T        0
O       22.79222173       1.66973526       4.35777241  T        0
O       20.11890446       4.28146543       8.02437905  T        0
Al      23.35633776       2.97409782       0.77753936  T        0
Si      23.61690600       4.86579537       9.26032259  T        0
Al      21.44979045       7.16959690       4.92917133  T        0
Si      16.99412404       9.28880797       7.04919615  T        0
Si      21.40146709      11.42170625       4.86637718  T        0
Si      19.55804946       3.07857505      13.22088029  T        0
Si      15.13619051       5.22452799      11.00034419  T        0
Si      23.22981602       0.76258659       3.04009227  T        0
Si      19.17352508       9.28415670       4.82686223  T        0
Si      21.37602378       4.73361412       7.09550712  T        0
Si      23.66752684       9.28919937       4.88673435  T        0
Si      17.34813968       2.99480749      11.00595191  T        0
Si      23.18951031       2.97474602       5.24230459  T        0
Si      17.33874238      11.01901189       3.00218579  T        0
Si      19.18082350       4.81404420       9.27281995  T        0
Si      15.11454383      11.01560993       5.23028425  T        0
Si      19.55786444      13.22043482       3.07654816  T        0
Si      23.18693842       5.19673510       3.07747081  T        0
Si      21.39778381       4.86720511      11.42376510  T        0
Si      17.01622967       7.04748076       9.26983929  T        0
O       24.65740738       3.68407720       8.80503429  T        0
O       24.55154555       8.73013829       3.60371352  T        0
O       26.33042218       6.72188447       4.23496022  T        0
O       26.32770817       4.23675101       6.72256835  T        0
O       24.69598531       9.92832145       6.00898437  T        0
O       24.40630202       6.21469424       9.75621425  T        0
O       26.22539128       8.00147106       1.77311837  T        0
O       26.27879103       1.80393674       8.04849399  T        0
Si      25.39302818       7.43533208       3.07482661  T        0
Si      25.42141874       3.08553864       7.48004052  T        0
O       24.68718190       2.41194539      -2.81153893  T        0
O       26.25021360       1.80497307      -0.68257765  T        0
O       24.35455272      -0.15896461      -3.59612966  T        0
O       26.49682079       4.18986685      -2.05876901  T        0
Si      25.47234052       3.02349543      -1.48896230  T        0
O       24.61194241      -2.71871265       2.39513680  T        0
O       26.29312666      -0.65091997       1.84219381  T        0
O       24.42411526      -3.69846700      -0.11799250  T        0
O       26.35228169      -1.99791907       4.25079663  T        0
Si      25.42364738      -1.42577010       3.01188306  T        0
O       17.99845370       2.44557884      -3.43088172  T        0
O       20.99337608       2.53006429      -6.36699203  T        0
O       19.98712260       0.93966714      -4.46136643  T        0
O       22.67937085       0.95654091      -1.79633125  T        0
O       24.42408223       3.59083287      -0.40361576  T        0
O       18.34964936      -0.12703178      -2.58155102  T        0
O       21.89446670      -0.05543354      -6.11476349  T        0
O       20.07251032       1.65668703      -1.87264407  T        0
O       22.58387154       1.68315626      -4.34896691  T        0
Si      19.08678551       1.23704996      -3.12610352  T        0
Si      21.33812119       1.27833003      -5.33908316  T        0
Si      23.59844026       1.23016389      -3.14112752  T        0
Si      21.33680822       1.24247042      -0.92041750  T        0
O       22.53910974      -2.01644978       0.82262864  T        0
O       24.36143184      -0.30430493       3.54765171  T        0
O       20.02970401      -1.77920396       1.86863967  T        0
O       22.74365246      -4.53490544       1.77067061  T        0
Si      21.35675698      -0.99144394       1.30055687  T        0
Si      23.57900590      -3.22634243       1.21902522  T        0
H       17.22544067      10.92750153       8.65411313  F        0
H       19.36965545       4.82834000      14.75328662  F        0
H       19.36965547      14.75328399       4.82834093  F        0
H       17.22544070       8.65411150      10.92750362  F        0
H       21.54216027      12.99764967       6.60187561  F        0
H       15.05290857       6.89848394      12.70105939  F        0
H       15.05290853      12.70105704       6.89848521  F        0
H       21.54216028       6.60187434      12.99765198  F        0
H       13.44269068      10.71000821       3.56560630  F        0
H       15.76397057       1.24433790      10.70999951  F        0
H       19.78591983       1.24430349      14.73192035  F        0
H       19.78591980      14.73191782       1.24430354  F        0
H       13.44269039       3.56560577      10.71001015  F        0
H       15.76397041      10.70999753       1.24433830  F        0
H       26.95194123       7.17131746       4.82834527  F        0
H       26.95194124       4.82834452       7.17131883  F        0
H       25.19630608       9.34383456       6.60185911  F        0
H       25.19630604       6.60185806       9.34383627  F        0
H       26.93058105       7.58756876       1.24433203  F        0
H       26.93058086       1.24433163       7.58757011  F        0
H       26.95192867       1.27083937      -1.07240246  F        0
H       25.19622735      -0.50276655      -3.24494277  F        0
H       26.93057835       4.85486043      -1.48866112  F        0
H       26.95192866      -1.07240650       1.27083969  F        0
H       25.19622853      -3.24494603      -0.50276481  F        0
H       26.93057847      -1.48866524       4.85486109  F        0
H       17.77043356       2.85994955      -4.28747201  F        0
H       20.10952426       2.85994950      -6.62656333  F        0
H       17.49833355      -0.50278089      -2.85477948  F        0
H       21.54221652      -0.50278066      -6.89866328  F        0
H       19.54187317      -2.53384464       1.48839915  F        0
H       21.86315519      -4.85512672       1.48839915  F        0
Fe      20.75039209       3.36853841       1.64096143  T        1
Fe      20.39684871       4.61471998       4.42964356  T        2
O       19.66863546       3.66410379       3.05939298  T        3
