142
Lattice="20.102 0.0 0.0 0.0 19.731 0.0 0.0 0.0 13.253" Properties=species:S:1:pos:R:3:move_mask:L:1:tags:I:1 i=77 E=-3472.0240129048 regions="_JSON [\"Active\"]" n_terminators=36 energy=-941.7733008741733 pbc="F F F"
O       10.11423511       8.42429912       9.16359445  T        0
O        9.93665857      18.71155092       4.04095677  T        0
O       10.01085207      11.40877400       3.97108306  T        0
O        2.28100655      11.38471953       3.95448093  T        0
O        7.85342809       8.40037625      10.64160868  T        0
O       12.08511888      18.64158859       2.49125439  T        0
O       12.41533025      11.16797083       2.80448270  T        0
O        7.89241150       7.32110131       8.17544796  T        0
O       12.18515593      17.53419379       4.93572893  T        0
O       12.19736877      12.61477305       4.98367967  T        0
O        8.02327592       9.98987040       8.53648535  T        0
O       12.11976920      20.21167748       4.62916308  T        0
O       11.79704402       9.96445039       5.18334970  T        0
O        3.76960539      10.78750512       6.07131795  T        0
O       13.46691191      10.87569823       0.41379412  T        0
O        3.08850160       8.88026593       4.19226845  T        0
O       13.89182033       9.04880138       2.47714911  T        0
O        4.90358798      10.79977325       3.64814477  T        0
O        4.95914100      18.46266169       4.26611636  T        0
O       15.10774588      11.43969532       2.43537695  T        0
O        3.66855084      12.06867399       8.51449689  T        0
O       14.05841479      17.14214354      12.11453812  T        0
O       14.27452713      12.51685431      12.15483236  T        0
O        5.97726138      11.26516835       7.46871904  T        0
O        5.86418851      19.18801381       7.62249013  T        0
O       14.22052422       9.34114203       5.74511832  T        0
O        4.12590324       9.40315733       8.25800596  T        0
O        6.31161123       9.96304976       1.47943941  T        0
O        8.21518294      12.58758252       7.95476055  T        0
O        7.80776471      17.39069151       8.12221525  T        0
O       12.39508510       7.36319990       5.21994217  T        0
O        8.17671054      10.82790277       5.98083111  T        0
O        7.94361624      18.64377794       5.87105403  T        0
O       12.22554309       8.62093351       7.47951737  T        0
O        7.48094929      11.42748709       3.34821928  T        0
O        7.39890398      18.64844204       3.27301812  T        0
O       12.57591533       8.51908618      10.12554057  T        0
O        8.61218903       8.70728597       3.94993670  T        0
O       11.44591696      10.70567879       8.89072000  T        0
O       12.00736767      19.01708966       9.41318517  T        0
O        5.67929537      12.55753814       1.74724913  T        0
O        5.54833391      17.33143605       1.88621418  T        0
O       10.08957482      17.06701456       9.56136036  T        0
O        9.97474681      12.96082447       9.88439962  T        0
O       10.26065447       6.60262436       3.70597799  T        0
O        7.69835690      16.69544355      10.70263341  T        0
O        7.24530931      13.42773861      10.40087152  T        0
O       12.75699981       6.62433256       2.73564216  T        0
O        8.63369506      14.97313558       8.77995870  T        0
O       12.09998464       4.83849107       4.65412907  T        0
O       13.89543390       7.48255327       0.44514182  T        0
O       15.66469847      12.57154238       9.95648015  T        0
O       15.46609734       6.83935871       2.48515877  T        0
O       15.41676128      17.23167005       9.91082733  T        0
O        5.46799350      14.96221024       0.71858264  T        0
O        3.76744805      16.86004236      -0.13486678  T        0
O        5.98126189       6.58367963       6.39164382  T        0
O        3.84500913      12.96898192      -0.22367753  T        0
O       14.09836412      13.19764408       6.84548447  T        0
O       14.21344497      16.93349573       6.63957820  T        0
O        7.77651542       4.77808331       7.44873879  T        0
O       12.42812621      15.08379747       5.85201477  T        0
O        8.46638236       6.64931651       5.63767946  T        0
O       11.42713393      13.25357521       7.45577667  T        0
O       11.69084171      17.11181741       7.47913683  T        0
O        7.72917873       6.31609845       3.04242415  T        0
O       12.95403785      12.95705025       9.81875229  T        0
O       12.74102016      16.55113942       9.84191061  T        0
O       14.49017745      14.83760245      10.85428895  T        0
Si       8.48736434       8.52534448       9.11804733  T        0
Si      11.57077658      18.76692679       4.04955116  T        0
Si      11.63756110      11.27380256       4.22882642  T        0
Si       3.53019414      10.44509828       4.48286926  T        0
Si      13.74307635      10.61069941       2.00991592  T        0
Si       4.39022838      10.89651392       7.59276776  T        0
Si       7.59828957      11.10805516       7.44403444  T        0
Si       7.46311155      18.83260640       7.41096264  T        0
Si      12.66644912       8.79811182       5.93423551  T        0
Al       8.58426677      10.35302022       4.35912029  T        0
Si       8.42281389      19.21665098       4.42307302  T        0
Si      11.60163750       9.11146406       8.92572513  T        0
Si       6.04589348      11.18115125       2.55237335  T        0
Si       5.81326590      18.62214881       2.86097699  T        0
Si       8.55570179      16.57072695       9.30220252  T        0
Si       8.52648388      13.41157384       9.38787518  T        0
Si      11.83518442       6.35195265       4.06599385  T        0
Si      13.99482462       7.47164078       2.08067740  T        0
Si       5.28312172      16.57477090       0.46607950  T        0
Si       5.34105461      13.37624027       0.35790892  T        0
Si       7.53141611       6.32753834       6.92747412  T        0
Si      12.57639472      13.51432012       6.28595509  T        0
Si      12.63281002      16.66451419       6.22616443  T        0
Si       8.74341475       7.10402968       4.08707592  T        0
Al      11.48709792      12.40870000       9.13266177  T        0
Si      11.62148786      17.45090906       9.09161185  T        0
Si      14.30167274      13.21632102      10.65475219  T        0
Si      14.18299919      16.41714035      10.64299696  T        0
O        8.42130899      20.01502541       8.05026094  T        0
O        5.33077999      20.03128525       2.14843615  T        0
O        8.32628376      20.84855089       4.59292616  T        0
O        6.37486026      17.23296190      -0.57210142  T        0
O        6.44003243      13.04448780      -0.81641767  T        0
H        1.81269882      11.30123319       3.09859993  F        0
H        7.07153747       8.87866318      10.98534327  F        0
H       13.03074803      18.74401529       2.26762503  F        0
H       12.34310542      20.30287261       5.56688324  F        0
H       14.08297195      10.81847671      -0.34490677  F        0
H        3.60112680       8.06005012       4.30646574  F        0
H        4.05829635      18.79668859       4.41071282  F        0
H       15.58095515      11.20568437       3.25070227  F        0
H        4.03182275      12.92715973       8.82439874  F        0
H       14.40563884      18.04556895      12.19637069  F        0
H       14.40563885      11.55048737      12.19637067  F        0
H        5.06295559      18.75104696       7.26028496  F        0
H       15.03932990       8.88569483       5.99268334  F        0
H        4.11249823       9.08086468       9.18193973  F        0
H        5.72719027       9.20254625       1.33756862  F        0
H       13.54926599       8.42132791      10.11787432  F        0
H       11.52310955      19.83515307       9.21116341  F        0
H        6.74596320      16.92620537      10.74076342  F        0
H        6.74596321      12.66985099      10.74076342  F        0
H       11.61525895       4.01919395       4.45233654  F        0
H       14.23421140       6.74908840      -0.07819396  F        0
H       15.75661379      12.42699387       9.00459924  F        0
H       15.83774429       6.73639486       3.37716865  F        0
H       15.75661380      17.16906248       9.00459925  F        0
H        2.98936131      16.34896307       0.14601228  F        0
H        5.18772305       6.48136951       6.94399129  F        0
H        2.98936131      13.24709329       0.14601228  F        0
H       14.91456245      13.24933472       6.30897701  F        0
H       14.91456244      16.34672163       6.30897701  F        0
H        7.92514400       4.01763560       6.85279547  F        0
H        6.78202892       6.52695113       2.93525138  F        0
H        8.32625906      20.60985804       8.81306681  F        0
H        5.72719026      20.39380587       1.33756863  F        0
H        8.66651872      21.47399316       3.93953912  F        0
H        6.36643797      17.19386972      -1.54340896  F        0
H        6.36643797      12.40218664      -1.54340896  F        0
Fe       8.62223937      13.00762504       3.98775932  T        0
Fe       9.59516116      14.02023648       6.85479582  T        1
O        8.19878486      14.40461980       5.41620219  T        2
O        9.58829765      14.55078136       4.84514015  T        3
