142
Lattice="19.123 0.0 0.0 0.0 14.277 0.0 0.0 0.0 7.5465" Properties=species:S:1:pos:R:3:move_mask:L:1:tags:I:1 i=128 E=-2603.9155142701 regions="_JSON [\"Active\"]" n_terminators=34 energy=-949.4963130425602 pbc="F F F"
O       15.55737590       8.80376857       6.21405994  T        0
O       12.86559423       1.35473798       1.68294662  T        0
O       15.59002550       6.12664216       5.72251545  T        0
O       15.63904114       5.86574859       1.76729455  T        0
O       12.89526707       1.23743172       5.73718567  T        0
O       15.91227578       8.45093359       1.82694768  T        0
O       11.65919900       3.62969285       2.41796792  T        0
O       17.00931641       3.48490117       6.18473533  T        0
O       16.88656726       3.54763104       1.23814999  T        0
O       11.58769027       3.47465951       5.10689482  T        0
O       12.48679169       3.40051315      -0.09494310  T        0
O       16.18624110       4.06963806       3.72857777  T        0
O       14.28463697       3.57185015       1.90773924  T        0
O       14.18306363       3.56379417       5.83507736  T        0
O       11.30675172       8.40639390       3.64082787  T        0
O       16.98054178       1.31634851      -0.23073419  T        0
O       11.80877895       5.83848902       3.87166440  T        0
O        9.49129287       4.61112339       3.76854942  T        0
O       13.40491661       7.57741504       5.13748107  T        0
O       15.42698465      -0.04859665       1.50199517  T        0
O       15.25321770       0.07134857       6.29351428  T        0
O       13.50952143       7.36430135       2.47665072  T        0
O       14.22128407       7.31999661      -0.04819447  T        0
O       14.32634933      -0.06739780       3.84896469  T        0
Si      12.81317390       2.95165263       1.46939189  T        0
Al      15.61104074       4.43383813       5.44107949  T        0
Si      15.72049721       4.27991203       2.13347727  T        0
Si      12.75592058       2.85710684       6.08342242  T        0
Si      17.53825805       2.86661946      -0.11796527  T        0
Si      11.11413089       4.35631987       3.79173714  T        0
Si      14.68044523       7.39994660       6.15877285  T        0
Al      13.69936353      -0.08196479       2.11418940  T        0
Si      13.84973492      -0.03786082       5.44485533  T        0
Si      14.80778900       7.26198021       1.49601996  T        0
Si      12.51717267       7.30153005       3.79097471  T        0
Si      16.05660033      -0.01866574      -0.03328777  T        0
O       21.16745237       3.71376083       8.98711992  T        0
O       21.34903517       1.26589153       7.81867944  T        0
O       19.18638630       2.83762520       7.53794350  T        0
O       23.26588944      -0.49652499       8.77262952  T        0
Si      20.84362171       2.82595188       7.63555203  T        0
Si      22.28647915      -0.04913052       7.52026046  T        0
O       22.41937863       5.89137449       5.74931863  T        0
O       22.42920674       5.91926631       1.90268249  T        0
O       21.52241272       3.46144341       6.26833863  T        0
O       21.51868568       3.51430570       1.31115662  T        0
O       22.47266643       3.98071026       3.79544313  T        0
O       24.21095151       3.96700891       1.67665513  T        0
O       24.21103124       3.96617626       5.91824270  T        0
O       21.32353406       1.24187178      -0.01217563  T        0
O       19.17544321       2.86373167       0.03329768  T        0
O       23.63130411       0.09752297       0.90791354  T        0
O       23.13261162       0.45495636       6.17778830  T        0
Si      22.66778089       4.29554587       5.41083444  T        0
Si      22.66994860       4.31346450       2.18381149  T        0
Si      20.83492391       2.81799769      -0.02558125  T        0
Si      22.30474108      -0.07367216      -0.08506257  T        0
O       21.19903558       3.59819390      -1.43228264  T        0
O       22.92412018      -0.21538993      -1.60690795  T        0
O       21.27268528      -3.41320551       9.10479700  T        0
O       21.40151223      -1.40676957       7.24784411  T        0
O       19.21488728      -2.95409218       7.55388928  T        0
Si      20.85822395      -2.93902548       7.58114565  T        0
O       21.44749041      -4.03192870       6.48650361  T        0
O       21.20147881      -3.89462856       1.31606904  T        0
O       21.42857507      -1.43295769       0.20753503  T        0
O       19.14304461      -2.88260622       0.00766949  T        0
Si      20.79235210      -2.95059993       0.01476539  T        0
O       21.20077650      -3.62439927      -1.43604555  T        0
O       17.05967885       3.84810905       8.88283328  T        0
O       12.23806577       3.00396695       7.65381417  T        0
O       16.95676252       1.33949431       7.84531474  T        0
O       15.18961562      -0.44650727       8.98571735  T        0
O       14.05663156       7.19284613       7.67951052  T        0
Si      17.54472009       2.86445812       7.64856125  T        0
Si      16.13003345      -0.07182820       7.67987505  T        0
O       17.10738377       3.72196307      -1.47130071  T        0
O       14.67056347       0.01293444      -0.93572021  T        0
O       17.08146291      -3.70024030       8.98419982  T        0
O       12.41927995      -3.31423694       7.62750111  T        0
O       17.12486982      -1.34843188       7.56869920  T        0
Si      17.57859352      -2.93544581       7.60494964  T        0
O       15.89495134      -5.99739951       5.65830193  T        0
O       12.93443949      -1.56870866       1.73777976  T        0
O       13.07607720      -1.41809990       5.81649173  T        0
O       15.91097630      -5.99555584       1.84550479  T        0
O       17.00164605      -3.65473135       6.24104230  T        0
O       11.66079920      -3.85426721       2.37055531  T        0
O       11.87937408      -3.68670726       5.05018431  T        0
O       16.85125287      -3.55398402       1.27096903  T        0
O       16.06493369      -4.08847373       3.76459074  T        0
O       12.45874601      -3.47285389      -0.14473813  T        0
O       14.39550690      -3.73956625       5.83985024  T        0
O       14.24386421      -3.89443375       1.81717666  T        0
O       11.31940300      -6.07779561       3.88450978  T        0
O       16.95815991      -1.35800283      -0.25822733  T        0
O        9.51858399      -4.07600719       4.07339001  T        0
Si      15.82141515      -4.37648533       5.36876787  T        0
Si      12.82420747      -3.14699494       1.44300134  T        0
Si      12.94443048      -3.03340103       6.08782141  T        0
Si      15.75138854      -4.38404991       2.17152790  T        0
Si      11.09905744      -4.43206344       3.80663160  T        0
Si      17.50544588      -2.91276665      -0.09983321  T        0
O       17.10492573      -3.77811890      -1.44922290  T        0
H       15.75671561       9.37610020       5.45468838  F        0
H       15.75699573       9.38061947       2.07980242  F        0
H       12.76076393       2.97683097      -0.93375646  F        0
H       11.31595404       9.37380971       3.76235534  F        0
H        8.59637561       4.20354031       3.76204115  F        0
H       14.60982961       7.13673871      -0.92783774  F        0
H       22.00636260       3.98381786       9.40800429  F        0
H       23.80717611       0.00053719       9.40943871  F        0
H       23.07136830       6.61169953       5.84807952  F        0
H       23.06898247       6.62073046       1.68518482  F        0
H       24.75935035       3.15857028       1.68481677  F        0
H       24.75385446       3.15950316       5.84781029  F        0
H       23.80717611       0.00053719       1.86293871  F        0
H       23.83786620      -0.00082127       5.68998115  F        0
H       21.98145514       3.97853683      -1.88343379  F        0
H       23.83786620      -0.00082127      -1.85651885  F        0
H       22.00483182      -3.97984234       9.41435165  F        0
H       22.00608000      -3.98797095       5.68686433  F        0
H       22.00483182      -3.97984234       1.86785165  F        0
H       22.00608000      -3.98797095      -1.85963567  F        0
H       16.24121950       3.98053732       9.41400179  F        0
H       12.76321398       2.97604733       8.47995589  F        0
H       14.43595606      -0.00016978       9.40393244  F        0
H       14.61405599       7.13800201       8.47661577  F        0
H       16.23925818       3.97887666      -1.85852020  F        0
H       14.44051635       0.00152190      -1.88177140  F        0
H       16.24088130      -3.98173953       9.41338238  F        0
H       12.76333233      -2.97624889       8.47967776  F        0
H       15.17320598      -6.62175386       5.84596239  F        0
H       15.17712900      -6.61799919       1.68693573  F        0
H       12.76174962      -2.97771999      -0.93393629  F        0
H       12.12595522      -6.62290057       3.76264176  F        0
H        8.59739021      -4.20337067       3.76217937  F        0
H       16.24044124      -3.98714965      -1.86101282  F        0
Fe      16.30574106       0.08682320       3.34301336  T        0
Fe      17.53743099       2.65241407       4.38407722  T        0
O       18.05449545       1.18568111       3.12641103  T        0
O       17.84582378       0.61269761       4.51122068  T        0
