136
Lattice="19.123 0.0 0.0 0.0 14.277 0.0 0.0 0.0 7.5465" Properties=species:S:1:pos:R:3:move_mask:L:1:tags:I:1 i=128 E=-2603.9155142701 regions="_JSON [\"Active\"]" n_terminators=30 energy=-928.4211946123502 pbc="F F F"
O       15.90702132       8.48885416       5.82670566  T        0
O       13.07464241       1.46951809       2.21051905  T        0
O       15.44902764       5.88406705       5.81473772  T        0
O       15.72499641       5.88567150       1.83792154  T        0
O       12.81432968       1.14272384       6.04357239  T        0
O       15.94732460       8.43996204       1.94375678  T        0
O       11.67559801       3.70552923       2.37784692  T        0
O       17.00457860       3.47582274       6.47656943  T        0
O       16.99682072       3.59031199       1.24983473  T        0
O       11.66551542       3.42557287       5.07235723  T        0
O       12.57381744       2.94269074      -0.06069053  T        0
O       16.02856710       3.87086773       3.71016498  T        0
O       14.33636259       3.62357096       1.84736041  T        0
O       14.28439148       3.21479146       5.50053653  T        0
O       11.35163650       8.40723262       3.62679077  T        0
O       17.16851718       1.29075508      -0.12398238  T        0
O       11.82071056       5.84268686       3.92184284  T        0
O        9.51189774       4.56308637       3.82604915  T        0
O       13.46826100       7.58855605       5.11831288  T        0
O       15.32656375       0.07278285       1.36082565  T        0
O       15.19199199      -0.02317497       6.55554184  T        0
O       13.51519525       7.29973222       2.44565905  T        0
O       14.48282580       7.32899099      -0.05228347  T        0
O       14.37323912       0.24514060       4.06901557  T        0
Si      12.84528670       2.93519245       1.53250865  T        0
Al      15.79893495       4.23539908       5.48677683  T        0
Si      15.83591303       4.30163922       2.13035448  T        0
Si      12.79745425       2.79331845       6.08645581  T        0
Si      17.60997037       2.85717825      -0.10271037  T        0
Si      11.13773518       4.36323190       3.80460555  T        0
Si      14.76768264       7.31842289       6.10481274  T        0
Al      13.90433760      -0.12147314       2.32951130  T        0
Si      13.86779626      -0.06053121       5.61742963  T        0
Si      14.87559443       7.26107670       1.53995505  T        0
Si      12.55826360       7.29962409       3.79321095  T        0
Si      16.15972524      -0.00375386      -0.02300754  T        0
O       19.23078720       2.62578158       7.91313552  T        0
O       21.26809090       3.40587629       1.57214828  T        0
O       21.40724582       1.31478618      -0.18444266  T        0
O       19.25289601       2.94261613      -0.11514176  T        0
O       22.87530939      -0.10519251       1.59907705  T        0
Si      20.90125765       2.87735374       0.04847181  T        0
Si      22.29805584      -0.06009455       0.05318485  T        0
O       21.65865301       3.94435881      -0.96333927  T        0
O       23.65437349      -0.09516053      -0.90364241  T        0
O       19.22648245      -3.28127972       7.83129643  T        0
O       21.20249314      -3.59317104       1.46171796  T        0
O       21.35286986      -1.39327526      -0.16599680  T        0
O       19.13652257      -2.97131523      -0.01257228  T        0
Si      20.78141693      -2.94477571      -0.00008382  T        0
O       21.22462000      -3.89181496      -1.28294878  T        0
O       17.13497586       3.65081044       9.18633695  T        0
O       12.50892400       3.34625473       7.60932523  T        0
O       17.00711985       1.24893356       7.98023639  T        0
O       15.25793730      -0.47672836       9.19757333  T        0
O       14.16506137       7.40808065       7.65081930  T        0
Si      17.59180967       2.79323556       7.82861362  T        0
Si      16.18440828      -0.14368696       7.85933117  T        0
O       15.71420675       8.41515101      -2.25496281  T        0
O       15.50731613       5.84416337      -2.05899969  T        0
O       12.90446173       1.24988228      -2.10958754  T        0
O       16.93475924       3.66092032      -1.36502759  T        0
O       11.60044337       3.62662763      -2.35868975  T        0
O       16.30165826       3.93825605      -3.83903243  T        0
O       14.31748512       3.49682263      -2.02694119  T        0
O       13.19610838       7.27358980      -2.32288692  T        0
O       15.15646933       0.03748645      -1.32162139  T        0
O       14.52942953      -0.04848170      -3.85623971  T        0
Si      15.74623694       4.24494860      -2.32395162  T        0
Si      12.86913865       2.83040499      -1.68061029  T        0
Si      14.72094674       7.22912875      -1.67701684  T        0
Si      13.89140327      -0.05533706      -2.33645288  T        0
O       17.12236331      -3.82483189       9.04401149  T        0
O       12.37564625      -3.27408454       7.63363337  T        0
O       17.19261598      -1.42063634       7.71950157  T        0
Si      17.61864311      -3.01616634       7.70057753  T        0
O       15.92328963      -6.00425676       5.83656718  T        0
O       13.01320731      -1.56569625       2.12646327  T        0
O       13.09364942      -1.47557624       5.73614949  T        0
O       15.91944249      -6.02976543       1.91058436  T        0
O       17.02349367      -3.65282372       6.30070470  T        0
O       11.66653028      -3.85158404       2.40908451  T        0
O       11.88374259      -3.75458958       5.08517859  T        0
O       16.90732398      -3.60601689       1.38379866  T        0
O       16.06327569      -4.16069102       3.84997475  T        0
O       12.59207775      -3.12532329      -0.01111324  T        0
O       14.40072530      -3.78519261       5.92059438  T        0
O       14.26886989      -3.92684952       1.88038472  T        0
O       11.30153295      -6.10350212       3.86634285  T        0
O       17.04182994      -1.37508354      -0.09652017  T        0
O        9.51215134      -4.10223296       4.09925116  T        0
Si      15.84246403      -4.40152102       5.45758548  T        0
Si      12.88230966      -3.08721122       1.60389244  T        0
Si      12.94792118      -3.07080878       6.10007922  T        0
Si      15.77986594      -4.41595810       2.25111694  T        0
Si      11.09180216      -4.45582445       3.82811598  T        0
Si      17.49458278      -2.94021509      -0.00640296  T        0
O       15.69408393      -6.03736833      -2.28332857  T        0
O       13.01929412      -1.41533896      -2.04661016  T        0
O       16.85377550      -3.77167035      -1.27494527  T        0
O       11.56839111      -3.69533283      -2.32785176  T        0
O       16.27823386      -3.93892200      -3.82485820  T        0
O       14.26551340      -3.77727157      -1.99670346  T        0
Si      15.75244280      -4.38345964      -2.32592800  T        0
Si      12.88068607      -2.99684783      -1.61439552  T        0
H       15.75671561       9.37610020       5.45468838  F        0
H       15.75699573       9.38061947       2.07980242  F        0
H       11.31595404       9.37380971       3.76235534  F        0
H        8.59637561       4.20354031       3.76204115  F        0
H       20.08726577       2.93486642       7.54597012  F        0
H       22.00636260       3.98381786       1.86150429  F        0
H       23.80717611       0.00053719       1.86293871  F        0
H       21.98145514       3.97853683      -1.88343379  F        0
H       23.83786620      -0.00082127      -1.85651885  F        0
H       20.08739461      -2.93488337       7.54749186  F        0
H       22.00483182      -3.97984234       1.86785165  F        0
H       22.00608000      -3.98797095      -1.85963567  F        0
H       16.24121950       3.98053732       9.41400179  F        0
H       12.76321398       2.97604733       8.47995589  F        0
H       14.43595606      -0.00016978       9.40393244  F        0
H       14.61405599       7.13800201       8.47661577  F        0
H       15.75671561       9.37610020      -2.09181162  F        0
H       11.39412799       3.98861071      -3.24188863  F        0
H       15.92661844       4.15901570      -4.70770176  F        0
H       12.88191441       7.13773895      -3.23957932  F        0
H       14.07160463      -0.00015943      -4.71417255  F        0
H       16.24088130      -3.98173953       9.41338238  F        0
H       12.76333233      -2.97624889       8.47967776  F        0
H       15.17320598      -6.62175386       5.84596239  F        0
H       15.17712900      -6.61799919       1.68693573  F        0
H       12.12595522      -6.62290057       3.76264176  F        0
H        8.59739021      -4.20337067       3.76217937  F        0
H       15.17320598      -6.62175386      -1.70053761  F        0
H       11.39521725      -3.98937216      -3.24237523  F        0
H       15.92569105      -4.16115943      -4.70878458  F        0
Fe      14.60794837       2.25515988       3.66646192  T        1
