135
Lattice="24.397 0.0 0.0 0.0 24.397 0.0 0.0 0.0 24.397" Properties=species:S:1:pos:R:3:move_mask:L:1:tags:I:1 i=41 E=-6943.8331748197 regions="_JSON [\"Active\"]" n_terminators=24 energy=-948.8602129076131 pbc="F F F"
O        9.59975125      14.69174460      -0.00192804  T        0
O       12.30598422       9.57118284       2.46273447  T        0
O       12.26505869      15.71754537       8.92424689  T        0
O       10.02536380      18.85178793       3.59923307  T        0
O       15.72516797       9.61617172       6.15675193  T        0
O       18.29690063      14.81498794       8.74262648  T        0
O       20.80826166      12.11068314       3.57545700  T        0
O       20.91428239      15.61155080      -0.16821534  T        0
O       14.59215303       9.61752709      -0.04460457  T        0
O        9.51315542      12.31898414       2.52836420  T        0
O       20.96902249      14.87990456       6.11569200  T        0
O       15.78651326      12.22329278       8.72998457  T        0
O       18.52017918       9.80456369       3.59599665  T        0
O        9.43154531      15.61337257       6.20985063  T        0
O       14.86764613      18.69250448       8.51350269  T        0
O       20.72689754      18.69647198       2.67677748  T        0
O       11.59034582      13.94435508       1.97476737  T        0
O       13.85808928      11.69374393       1.83638263  T        0
O       17.47700989      10.21484163       8.11973161  T        0
O       20.26993247      13.12208372       8.03635032  T        0
O       20.39220011      10.20289022       5.43968673  T        0
O       19.29511436      16.61612922       1.74020287  T        0
O       10.24217893      10.30324347       0.91985575  T        0
O       11.24793659      16.63784588       4.52484565  T        0
O       13.95615941      16.61026418       7.03586194  T        0
O       19.18378313      14.13176245       4.29495384  T        0
O       16.58512551      11.44496653       4.43896372  T        0
O       16.47942776      14.09313261       6.93624335  T        0
O       11.91943032      11.93924453       3.65793807  T        0
O       18.25793496       8.75062863       6.06209099  T        0
O       18.31687200      12.25648908       9.58274961  T        0
O       21.82628781      12.34655323       6.03904003  T        0
O       18.18820691      18.26860846       3.55765598  T        0
O       12.07509716       8.69896949      -0.07298921  T        0
O        8.65510551      12.18456934      -0.01938062  T        0
O       12.04558624      14.90802906       6.33236191  T        0
O       12.42651262      18.18809030       2.67349583  T        0
O       15.81142621      18.30185792       6.01416865  T        0
O       18.43420648      15.75443753       6.24623923  T        0
O       18.28273440      12.32853335       2.59195787  T        0
O       14.80365971      12.13896468       6.24876387  T        0
O       10.41446387      16.62538227       2.01051725  T        0
O       14.06565179      10.50398113       4.25670244  T        0
O       20.03082693       7.77862612       4.26784590  T        0
O       16.47067761       7.71196682       7.79768349  T        0
O       20.04330158      14.09857503      10.55786724  T        0
O       22.81531289      10.52843892       4.30032827  T        0
O       20.10273323      14.02579390       1.78659377  T        0
O       16.52659172      10.52349688       1.92732278  T        0
O       10.44141895      14.02952636       4.38795259  T        0
O       22.79445105      14.10887652       7.83264752  T        0
O       16.51602618      10.53521785      10.62721645  T        0
O       20.07097797      16.63785567       4.30600105  T        0
O        7.71386475      10.48601916       1.86623704  T        0
O       16.49495665      16.61228598       7.86898181  T        0
O       14.00175276      14.04836929       7.91339406  T        0
O       10.44644369       7.77654553       1.88290028  T        0
Al      10.86900273      15.31430004       0.98183031  T        0
Si      13.03712312      10.91771264       3.04768360  T        0
Si      16.99088117       9.07733492       7.04965959  T        0
Si      19.23451802      13.56373643       9.23305724  T        0
Si      21.46924552      11.28872552       4.85605154  T        0
Si      19.67509998      15.30625003       0.85769100  T        0
Al      15.18695762      10.91495665       0.88964981  T        0
Si      10.83898164      13.05222411       3.14666313  T        0
Si      21.46040591      13.60396541       7.02410277  T        0
Si      17.02990184      11.29951496       9.26647574  T        0
Si      19.30175490       9.12010306       4.86845755  T        0
Si      19.57958302      17.57528987       3.05502093  T        0
Si       9.02194415      11.31889743       1.31180700  T        0
Si      10.80483739      15.30527823       5.34586888  T        0
Si      15.24878375      17.56438588       7.36861284  T        0
Si      19.66500389      15.37481778       5.26250051  T        0
Si      17.45151376      10.94373997       3.15172292  T        0
Si      15.26885715      13.12558920       7.46519557  T        0
Si      11.25921343       9.07952126       1.28869490  T        0
Si      15.26982187      10.92087092       5.27677502  T        0
Si      19.65684317      13.14967540       3.09783024  T        0
Si      17.42015784      15.33080606       7.45669413  T        0
Si      10.98931346      17.56663792       3.18479582  T        0
Si      13.06259002      15.32894791       7.53355690  T        0
O       14.84572806      12.08187180      -2.60631080  T        0
O       15.60177199      18.60034295      -2.51661065  T        0
O       12.14106457      14.82571737      -2.55060423  T        0
O       18.66141372      15.60970985      -2.47243492  T        0
O       14.06022690      13.94540079      -0.89793988  T        0
O       16.65683398      16.65466394      -1.00094706  T        0
O       12.97822017      10.15888250      -2.10316062  T        0
O       10.19916678      13.00801755      -2.00800983  T        0
O       12.37563096      15.55768114       0.07945026  T        0
O       15.90241460      12.23449998      -0.10855074  T        0
O       18.28432073      14.80270938       0.05694896  T        0
O       14.76666966      18.27621093       0.06476818  T        0
O       12.31960777      12.33555439      -3.45747488  T        0
O       16.56152207      14.08314110      -1.85859039  T        0
O       13.99877821      10.54255199      -4.56889843  T        0
O        7.71628469      14.06031451      -1.72044178  T        0
O       14.09815937      16.50668143      -1.76470068  T        0
O       10.50159087      14.03921405      -4.49156405  T        0
O       13.97526136       7.66772530      -1.66996598  T        0
Si      15.35342184      13.06026492      -1.41061468  T        0
Si      15.28908015      17.53456514      -1.29397292  T        0
Si      13.12228480      15.26698058      -1.31917631  T        0
Si      17.50826809      15.31334345      -1.34389783  T        0
Si      13.41222794       9.04260842      -0.96529095  T        0
Si      11.26495413      13.54086863      -3.12023970  T        0
Si       9.04831655      13.50377864      -0.92586589  T        0
Si      13.51570892      11.26549869      -3.17364281  T        0
H       11.67124922      16.48560174       8.95913012  F        0
H        9.33839640      18.82463975       4.28720704  F        0
H       21.15749781      16.48550533      -0.52720743  F        0
H        9.33840600      16.48559124       6.62628668  F        0
H       14.01032599      18.82464129       8.95915608  F        0
H       21.15752488      18.82463433       1.81198193  F        0
H       17.79487493      19.09683489       3.24462108  F        0
H       12.70103451      19.09682959       2.85456063  F        0
H       15.44301367      19.09684377       5.59651532  F        0
H       20.83116242       7.34351907       4.61081863  F        0
H       16.80917625       7.34350499       8.63275504  F        0
H       20.83112794      13.68672549      10.95404502  F        0
H       23.15243040       9.66481607       4.61081458  F        0
H       23.15239535      13.68673615       8.63276462  F        0
H       16.80915547       9.66477682      10.95402362  F        0
H        7.34352333       9.66479174       1.48837704  F        0
H        9.66479163       7.34352337       1.48837704  F        0
H       16.48557283      18.82464187      -2.86023677  F        0
H       18.82464171      16.48557294      -2.86023676  F        0
H       15.05286163      19.09678375       0.50248504  F        0
H       13.68673308       9.66480596      -4.85513656  F        0
H        7.34352146      13.68671965      -2.53387758  F        0
H        9.66480591      13.68673318      -4.85513656  F        0
H       13.68671953       7.34352150      -2.53387758  F        0
Fe      16.80282303      13.45418519       1.45544654  T        0
Fe      13.59111036      13.94412210       1.44776188  T        1
O       15.34046983      14.44373732       1.87079201  T        2
