141
Lattice="19.123 0.0 0.0 0.0 14.277 0.0 0.0 0.0 7.5465" Properties=species:S:1:pos:R:3:move_mask:L:1:tags:I:1 i=128 E=-2603.9155142701 regions="_JSON [\"Active\"]" n_terminators=32 energy=-955.3825856913506 pbc="F F F"
O        6.25742944       1.25217356       2.12936700  T        0
O       15.59208900       8.48484444       5.79260903  T        0
O       13.03416241       1.10936165       1.45995478  T        0
O        3.21802157       8.53835598       5.89265713  T        0
O        6.05318019      13.17791119       1.43290900  T        0
O       15.57759627       5.80155861       5.78934785  T        0
O       13.19078541      13.17869998       1.35605493  T        0
O        3.22862129       5.81282983       5.92727978  T        0
O       13.06324995      13.16777221       6.08919669  T        0
O        3.38337293       5.77946787       1.71434622  T        0
O        6.05689999      13.11812793       6.05387935  T        0
O       15.68569468       5.76069304       1.70951405  T        0
O       13.03622354       1.09695795       6.07681591  T        0
O        3.64425935       8.44645752       1.97094575  T        0
O        5.87903707       1.14307447       6.15646736  T        0
O       15.64056353       8.44740360       1.76559544  T        0
O        7.34835234       3.67803713       2.28775599  T        0
O       17.18361577      10.63479279       6.17426716  T        0
O       11.82743292       3.34708933       2.44950945  T        0
O        2.00899542      10.95683152       6.07424964  T        0
O        7.12247317      10.90078610       2.48882999  T        0
O       17.13296330       3.61486504       6.17560617  T        0
O       12.02648297      10.92896022       2.43142908  T        0
O        2.01657189       3.38527909       6.06105767  T        0
O       11.92044302      10.82688109       5.17321146  T        0
O        2.12134487       3.43284087       1.35487135  T        0
O        7.28563858      10.86138068       5.10657629  T        0
O       17.11570627       3.46667878       1.45037496  T        0
O       11.87270728       3.35494336       5.08980571  T        0
O        1.99540461      10.43155037       1.21540247  T        0
O        7.22866468       3.20283196       4.98906876  T        0
O       17.22915326      10.58777640       1.35730827  T        0
O        6.47071192       2.89170629      -0.07256768  T        0
O       16.13659301      10.13574590       3.76846604  T        0
O       12.45420196       3.23947012      -0.04875245  T        0
O        2.95244172      10.22084745       3.76277559  T        0
O        6.60080857      11.00314858      -0.03800013  T        0
O       16.08696107       4.11305013       3.78928725  T        0
O       12.53397184      10.98361850      -0.05401011  T        0
O        3.01873624       4.15392831       3.79139610  T        0
O        4.72327416       3.47058058       1.85557984  T        0
O       14.54279475      10.96691904       5.76383921  T        0
O       14.43456840       3.38689459       1.82693588  T        0
O        4.68629939      10.79429003       5.70323954  T        0
O        4.55799194      10.97598392       1.75780531  T        0
O       14.46905801       3.35435932       5.77429440  T        0
O       14.60090096      10.93514933       1.71087681  T        0
O        4.70918623       3.57371167       5.75678278  T        0
O        1.80761124       1.14034685      -0.09056201  T        0
O       11.41071611       8.30123299       3.62508574  T        0
O        7.53687664       8.51945313       3.70503012  T        0
O       11.58025400       5.67344144       3.77329425  T        0
O        7.56113243       5.67024985       3.88215198  T        0
O       -0.03469795       3.09630875      -0.28895546  T        0
O        9.46835972      10.10730217       3.57364226  T        0
O        9.57814564       3.89291658       3.81333678  T        0
O       13.36087676       7.16112260       5.12433481  T        0
O        5.31265449       7.18147936       5.01677778  T        0
O        5.79652725       6.81415506       2.15752594  T        0
O       13.46714428       7.03548286       2.45142041  T        0
O       14.14624718       7.09838195      -0.07135382  T        0
O        4.58083033       7.22677868      -0.17353784  T        0
Si       6.15221257       2.77943762       1.52345896  T        0
Si      15.84538020      10.06383164       5.38635089  T        0
Si      12.97427030       2.76344623       1.43407609  T        0
Si       3.23275799      10.10158034       5.37911580  T        0
Si       6.06301448      11.52500029       1.42238847  T        0
Si      15.80820387       4.22274889       5.40251162  T        0
Si      13.09090872      11.51779952       1.39847736  T        0
Si       3.25541616       4.25276201       5.41391341  T        0
Si      13.02233973      11.50224034       6.12054424  T        0
Si       3.29064202       4.21452946       2.18752717  T        0
Si       6.12442946      11.46469323       6.10129295  T        0
Si      15.82116403       4.19075770       2.17263413  T        0
Si      12.98909724       2.75032653       6.12131380  T        0
Si       3.28446620      10.03730082       2.16978410  T        0
Si       6.08850620       2.77757536       6.11404406  T        0
Si      15.88320405      10.03481018       2.14550617  T        0
Si       1.56218858       2.78456371      -0.06477231  T        0
Al      11.26519543      10.14715791       3.75072288  T        0
Si       7.83418245      10.14643191       3.74981053  T        0
Si      11.22490503       4.07368965       3.77911488  T        0
Si       7.95914688       4.09020442       3.84184604  T        0
Si      14.68973320       7.15210690       6.09193908  T        0
Si       4.14318069       7.18356601       6.11254393  T        0
Si       4.33592689       7.07910762       1.42321975  T        0
Si      14.76436313       7.10046503       1.45516748  T        0
Si      12.48667923       7.04578673       3.75172861  T        0
Al       6.49639573       7.10172680       3.81585588  T        0
O        6.67580815       3.21975323       7.58590092  T        0
O       12.43673147       3.21527353       7.59601927  T        0
O        6.64211001      11.01768972       7.59445360  T        0
O       12.52171094      10.99130175       7.60152623  T        0
O       14.11627110       7.12982912       7.63682236  T        0
O        4.88643218       7.20346773       7.58372663  T        0
O        3.40675650       8.42777141      -2.33833263  T        0
O        3.57062864       5.81172019      -2.20648184  T        0
O        6.32061452       1.20413932      -2.17606295  T        0
O        2.35866204       3.54324584      -1.29321251  T        0
O        7.57430285       3.56697462      -2.37070009  T        0
O        2.85099593       3.81974151      -3.87273253  T        0
O        4.87680120       3.50126575      -2.12620639  T        0
O        5.90631349       7.23204666      -2.33447644  T        0
Si       3.40752479       4.18626204      -2.36727912  T        0
Si       6.27764376       2.79061916      -1.71724835  T        0
Si       4.35089758       7.19110319      -1.78551008  T        0
H        5.61083456       0.52083913       2.07985367  F        0
H       13.50938118       0.51971906       2.07492992  F        0
H        5.61112307      13.75835362       2.07975607  F        0
H       13.50958039      13.75682243       2.07498241  F        0
H       13.51084140      13.75504172       5.44776650  F        0
H        5.62495998      13.75277707       5.44935724  F        0
H       13.50975252       0.52161770       5.44778410  F        0
H        5.62509051       0.52255101       5.44942550  F        0
H       17.28974254      11.12548174       7.01862795  F        0
H        1.83343022      11.12554006       7.01950242  F        0
H       17.28979000       3.14560285       7.02339196  F        0
H        1.81954193       3.15353441       6.98813474  F        0
H       17.29134854       3.14797220       0.53999843  F        0
H        1.83154049      11.12909684       0.54034962  F        0
H       17.29120144      11.12876736       0.54010345  F        0
H       12.76076393       2.97683097      -0.93375646  F        0
H        6.36236324      11.29726414      -0.93275871  F        0
H       12.76174962      11.29928001      -0.93393629  F        0
H        2.56244240       0.51556882       0.00084209  F        0
H       -0.96435880       2.93479999       0.00082830  F        0
H       14.60982961       7.13673871      -0.92783774  F        0
H        6.35949513       2.97597070       8.47938261  F        0
H       12.76321398       2.97604733       8.47995589  F        0
H        6.35946036      11.30224636       8.48133548  F        0
H       12.76333233      11.30075111       8.47967776  F        0
H       14.61405599       7.13800201       8.47661577  F        0
H        4.50898861       7.14016697       8.47499567  F        0
H        3.36611374       9.37433505      -2.09115109  F        0
H        5.62509051       0.52255101      -2.09707450  F        0
H        7.72584421       3.99139588      -3.24276680  F        0
H        3.20026696       4.16316078      -4.71757657  F        0
H        6.23944212       7.13797332      -3.24031999  F        0
Fe       9.52028525       8.02721604       2.79411998  T        0
Fe       7.57595277       5.81873721       1.60160795  T        1
O        9.02083916       6.89596556       1.41660656  T        2
