145
Lattice="20.102 0.0 0.0 0.0 19.731 0.0 0.0 0.0 13.253" Properties=species:S:1:pos:R:3:move_mask:L:1:tags:I:1 i=77 E=-3472.0240129048 regions="_JSON [\"Active\"]" n_terminators=30 energy=-1002.4593209250802 pbc="F F F"
O       10.11698840       8.89282772       9.44109512  T        0
O        0.01977604       8.44916571      10.35463230  T        0
O       10.33740445      11.04039223       3.85877386  T        0
O        2.77241305      11.39205873       3.19786539  T        0
O        7.70822867       8.51197708      10.54737644  T        0
O       12.89921715      11.44126993       3.02620569  T        0
O        8.51111866       2.77951233       8.31803047  T        0
O        8.48913552       6.98498583       8.48989044  T        0
O       12.13258412      12.41364797       5.28155072  T        0
O        7.84047672       9.50427681       8.09623138  T        0
O       12.35882873       9.76400800       5.05714632  T        0
O        3.54817191      11.13879360       5.79437702  T        0
O        6.22943841       8.78954066      12.73929230  T        0
O        3.52975608       8.98800941       4.21363533  T        0
O        6.92581305      10.93484710      11.29082898  T        0
O        5.26168668      10.97989873       3.74822346  T        0
O        5.14823377       9.26684423      10.31304672  T        0
O        4.09704286      12.63947415       7.95726022  T        0
O        6.18583157       7.34617707       1.34482800  T        0
O        5.81023706      10.66170658       7.07755122  T        0
O        3.84988457       8.36429433       0.83140323  T        0
O       14.30189019       8.54038648       6.52034764  T        0
O        3.58353102      10.05239773       8.27813277  T        0
O        5.96279395      10.02783149       1.35861467  T        0
O        7.86482493      12.50916695       7.98322085  T        0
O       12.29651375       7.13520237       5.35864603  T        0
O        8.33586190      10.79595048       5.62028093  T        0
O        1.39302762       9.20850812      12.59204579  T        0
O       11.88108699       8.66537554       7.46950939  T        0
O        7.80172905      11.11698666       3.01538086  T        0
O        2.56332729       8.61004615      10.25930015  T        0
O       12.57908146       8.46846914      10.10261028  T        0
O        8.85650118       8.86014811       3.79987499  T        0
O        1.17579901      10.88944736      10.56793929  T        0
O       11.86328705      10.84242485       8.98923995  T        0
O        4.89616016       2.04028099       8.44818467  T        0
O        6.14317784      12.68582051       1.79988943  T        0
O        4.40744619       7.56417106       8.50420918  T        0
O        9.93232405      12.59702161       9.63284131  T        0
O       10.14464549       6.50414946       3.84170726  T        0
O        2.18709182       6.68367931       3.82900577  T        0
O        7.53869227      13.39892163      10.47973548  T        0
O       12.40209296       6.99195401       2.66174127  T        0
O        8.98796875      14.88191839       8.73624541  T        0
O       12.17156301       4.74973694       4.12811793  T        0
O        3.69978037       6.96719500       5.93836332  T        0
O        6.26039286      13.02190496      12.77173158  T        0
O        3.80319188       2.34922439       6.03386995  T        0
O        4.88775736       6.77554162       3.58800392  T        0
O        4.98897834      12.53509216      10.45861613  T        0
O        4.45471612       4.57335926       7.50804612  T        0
O        6.32001309       6.76252709       6.98844525  T        0
O        6.37188145       2.94654243       6.53958698  T        0
O       14.16846790      13.15864049       6.92004645  T        0
O        8.21291416       4.84587653       6.85808551  T        0
O       12.37997672      14.94807650       5.83714482  T        0
O        8.63132328       7.26387582       5.86254615  T        0
O        1.40525366      12.75463765      12.44425348  T        0
O        8.88168765       2.53180102       5.68047970  T        0
O       11.74542932      13.21046438       7.80376130  T        0
O        7.52986781       6.54966740       3.52341213  T        0
O        2.43712948      13.18514396       9.99155863  T        0
O       12.37076815      13.05758565      10.43799223  T        0
O        4.50708032      14.87794322       9.43196574  T        0
O        6.02837058       4.81550213       2.12006457  T        0
Si       8.58353345       8.48637881       9.16012993  T        0
Si      11.90302870      11.14213632       4.30092712  T        0
Si       3.75818444      10.59490375       4.24788525  T        0
Si       6.49393002       9.36839953      11.24138087  T        0
Si       4.24532286      11.16971603       7.26772967  T        0
Si       5.46774150       8.64323031       0.64527053  T        0
Al       7.59892783      11.03525951       7.15257727  T        0
Si      12.71231856       8.54495641       6.07385791  T        0
Si       8.82181994      10.47007182       4.12218614  T        0
Si       1.26656092       9.31181369      10.97239551  T        0
Si      11.65038006       9.22962024       8.98472108  T        0
Si       6.27227249      11.19200673       2.46880301  T        0
Si       3.88147186       8.85352448       9.36859192  T        0
Si       8.54997087      13.35748216       9.17930615  T        0
Si      11.75587001       6.33675449       4.02983619  T        0
Si       3.58367765       7.35443402       4.38488042  T        0
Si       6.42700205      12.48924961      11.24309934  T        0
Al       4.58571547       6.27344170       7.24001024  T        0
Si       4.83080723       3.03624230       7.13342687  T        0
Si       7.93437067       6.41493178       7.05539518  T        0
Si       7.94993486       3.23353616       6.84937190  T        0
Si      12.60635568      13.43709760       6.44721572  T        0
Si       8.78544861       7.30672542       4.23425033  T        0
Si       1.21911620      12.49948921      10.84596766  T        0
Si      11.48838208      12.42000132       9.20861340  T        0
Si       6.15377790       6.36953017       2.65837966  T        0
Si       3.97531506      13.32445495       9.45675631  T        0
O        2.10898671      11.27030487      17.43138376  T        0
O        1.68807987      12.55998569      15.06884027  T        0
O        1.86144093       9.89170593      15.12973482  T        0
O        5.04281388      10.85792450      17.54306824  T        0
O        5.46185526       7.12003494      14.72125413  T        0
O        3.78978051       8.84185800      13.69230760  T        0
O        5.82317064       9.76041287      15.20903614  T        0
O        1.59825261       7.32179495      14.33535431  T        0
O        7.50025412      11.37116845      16.61026003  T        0
O        5.51031296      12.41516254      15.30508404  T        0
O        5.59609653      14.96172386      14.50762425  T        0
O        3.75769589      13.25249869      13.50178672  T        0
O        1.72524809      14.97097689      13.96942150  T        0
Si       1.37358175      11.21522374      15.95016253  T        0
Si       5.35191987       8.64527933      14.11614251  T        0
Si       2.18252401       8.80647639      13.95850584  T        0
Si       5.94643361      11.09058602      16.16727626  T        0
Si       5.29562243      13.41485317      14.02857812  T        0
Si       2.15457421      13.39699677      13.74871182  T        0
O        5.80434753       8.71865688      -0.96688733  T        0
O       -0.20697161      11.14236750      16.37333697  T        0
O       -0.15748894      13.21386423      10.29386924  T        0
H       -0.89571882       8.42972886      10.66739018  F        0
H        1.81269882      11.30123319       3.09859993  F        0
H       13.03074804      10.85204106       2.26762503  F        0
H        8.32487049       1.96348467       8.80281458  F        0
H        3.12887899       8.92429365       0.49683426  F        0
H       15.03932990       8.88569483       5.99268334  F        0
H       13.54926599       8.42132791      10.11787432  F        0
H        4.22937586       1.85859719       9.12987557  F        0
H        5.53537813      12.95496052       1.09262639  F        0
H        2.04924741       6.48050321       2.89306910  F        0
H       13.35632228       7.06085325       2.51220488  F        0
H        8.48702655      15.71151028       8.80063176  F        0
H       11.61525895       4.01919395       4.45233654  F        0
H        3.68470477       2.53683452       5.08310689  F        0
H       14.91456245      13.24933472       6.30897701  F        0
H       12.17714149      15.71306863       6.40017283  F        0
H        8.61892989       2.44869843       4.74740482  F        0
H       13.32025657      13.20375310      10.31771692  F        0
H        4.05997682      15.72757570       9.28699687  F        0
H        5.99116592       4.00312854       2.66051272  F        0
H        2.97960529      10.85204106      17.61185912  F        0
H        4.05829635      10.79936776      17.66371281  F        0
H        6.01932001       6.80354450      15.45091456  F        0
H        1.83990596       6.82542533      15.13110093  F        0
H        8.12388129      10.93300164      17.21761941  F        0
H        5.67587981      15.71242072      13.88688066  F        0
H        2.12599875      15.71306863      13.47931132  F        0
H        6.58577874       9.14969547      -1.35751146  F        0
H       -0.90389482      10.88061926      15.75378840  F        0
H       -1.04605969      13.03623234      10.65268580  F        0
Fe       6.00425930       8.68583187       7.53675306  T        1
