147
Lattice="24.397 0.0 0.0 0.0 24.397 0.0 0.0 0.0 24.397" Properties=species:S:1:pos:R:3:move_mask:L:1:tags:I:1 i=41 E=-6943.8331748197 regions="_JSON [\"Active\"]" n_terminators=24 energy=-1044.9597858481172 pbc="F F F"
O        9.67931400      14.59645025      -0.06805062  T        0
O       12.32382788       9.54363689       2.45092762  T        0
O       14.84904932      21.06882257       6.13395619  T        0
O       12.18909468      15.66697133       8.87917072  T        0
O        9.41557096      18.35666310       3.44670490  T        0
O       15.73547189       9.59017756       6.13706092  T        0
O       18.30978180      14.76057751       8.71722644  T        0
O       20.80979333      12.07476289       3.57511618  T        0
O       20.92488756      15.61429570      -0.15282413  T        0
O       18.29590824      21.09950957       2.62841900  T        0
O       14.59952974       9.60681582      -0.04764490  T        0
O        9.52150614      12.30036748       2.50940291  T        0
O       20.93648805      14.83770697       6.14003115  T        0
O       15.76851614      12.20413199       8.73131617  T        0
O       18.52616494       9.79853539       3.60776358  T        0
O        9.45567085      15.60995890       6.22010730  T        0
O       14.85418762      18.35056690       8.86421358  T        0
O       12.25255090      21.10587787       3.50220783  T        0
O       15.63956720      21.03152182      -0.05657945  T        0
O       21.09509874      18.25883673       2.59932925  T        0
O       11.61899658      13.89290306       1.97852578  T        0
O       13.87007995      11.67445393       1.83614704  T        0
O       17.46393176      10.20071782       8.11411565  T        0
O       20.29302625      13.06120827       8.06436721  T        0
O       20.40890921      10.17482817       5.44675893  T        0
O       19.22729269      16.50464036       1.78357146  T        0
O       16.49959121      19.25777277       1.79818239  T        0
O       10.25417307      10.27457181       0.91787488  T        0
O       11.22071220      16.60216501       4.43918024  T        0
O       14.05118515      19.25921712       4.28752284  T        0
O       13.97527213      16.54712259       7.04987048  T        0
O       19.18995073      14.09925427       4.27189823  T        0
O       16.58412261      11.44044041       4.43206993  T        0
O       16.44015465      14.06993599       6.93897867  T        0
O       11.91776780      11.89766295       3.66210467  T        0
O       18.26968194       8.73482706       6.06912129  T        0
O       18.30592974      12.22236717       9.58882600  T        0
O       21.83153392      12.32397992       6.04007206  T        0
O       18.48139926      18.50374092       3.34137051  T        0
O       12.08548913       8.68052551      -0.08348496  T        0
O        8.66001270      12.12452662      -0.04504457  T        0
O       12.06352080      14.90339931       6.26998650  T        0
O       12.03460868      18.50072836       2.79693714  T        0
O       15.60903746      18.47470115       6.26320792  T        0
O       18.39740684      15.70397663       6.21803590  T        0
O       18.28877000      12.30055594       2.57364229  T        0
O       14.79064850      12.10222143       6.24570181  T        0
O       10.46157736      16.57073218       1.86405024  T        0
O       14.07297773      10.47352689       4.24775296  T        0
O       20.02729804       7.76421002       4.26095330  T        0
O       16.47507435       7.69251511       7.78852401  T        0
O       20.02387368      14.06862635      10.56883937  T        0
O       22.82330994      10.52466337       4.28973404  T        0
O       20.14455878      13.96791110       1.76894614  T        0
O       16.58779166      20.08190206       4.37321838  T        0
O       16.52844065      10.47474112       1.93724514  T        0
O       10.42901250      13.99999094       4.37761688  T        0
O       22.79486779      14.09531864       7.82640578  T        0
O       16.48015681      10.51616703      10.61594996  T        0
O       13.93242034      20.03251466       1.71983623  T        0
O       20.06053043      16.60701865       4.34129045  T        0
O        7.73049107      10.46797279       1.88354098  T        0
O       16.52942866      16.57731680       7.88577859  T        0
O       13.95172496      13.99281191       7.90799281  T        0
O       10.46621521       7.74699640       1.87262272  T        0
Al      10.92625844      15.21806310       0.92750142  T        0
Si      13.04482171      10.89081466       3.04256298  T        0
Si      16.99319472       9.05869151       7.04287877  T        0
Si      19.23814987      13.51708280       9.23819881  T        0
Si      21.47478681      11.26723682       4.85717647  T        0
Si      19.69182958      15.25294387       0.85676427  T        0
Si      17.45709743      19.73951655       3.03518503  T        0
Al      15.20532703      10.89347448       0.89302007  T        0
Si      10.84591353      13.01766672       3.14660343  T        0
Si      21.45952832      13.56804582       7.03607227  T        0
Si      17.01121023      11.27957382       9.26276463  T        0
Si      19.30733492       9.10517568       4.87204889  T        0
Si      15.25648341      19.68937195       0.82479344  T        0
Si      19.70184643      17.49076338       3.02062401  T        0
Si       9.03343453      11.28918408       1.30431592  T        0
Si      10.79777817      15.29260711       5.31479371  T        0
Si      13.05399851      19.72406561       3.07739453  T        0
Si      15.22982915      17.49441619       7.50754279  T        0
Si      19.65039071      15.32660176       5.26353892  T        0
Si      17.45283229      10.92649359       3.14963379  T        0
Si      15.23595239      13.09285217       7.46456541  T        0
Si      11.27386781       9.05314123       1.28138056  T        0
Si      15.27391551      10.89768391       5.26663515  T        0
Si      19.66780636      13.11163718       3.08079229  T        0
Si      17.41450823      15.27996740       7.45136842  T        0
Si      15.26347241      19.72323557       5.27361505  T        0
Si      10.78603478      17.49672637       3.12040519  T        0
Si      13.03576417      15.28899729       7.51787621  T        0
O       14.90921673      12.00461488      -2.61549771  T        0
O       15.71465399      18.23584003      -2.80015533  T        0
O       12.12081523      14.76688372      -2.53100774  T        0
O       18.71907502      15.61477467      -2.44123454  T        0
O       14.13347004      13.89891355      -0.96595417  T        0
O       16.62774123      16.51641260      -0.96219112  T        0
O       12.99156192      10.13248161      -2.11721947  T        0
O       10.18000899      12.90852169      -2.08286999  T        0
O       12.46790502      15.45720261       0.08960697  T        0
O       15.94481651      12.20092212      -0.10687075  T        0
O       18.32031015      14.71642952       0.04140763  T        0
O       14.96411234      18.42333680      -0.17857502  T        0
O       12.37434427      12.31486447      -3.46852424  T        0
O       16.64876178      13.98910571      -1.90789098  T        0
O       14.04594627      10.52196781      -4.57540847  T        0
O        7.73098099      14.02780508      -1.71546079  T        0
O       14.08121657      16.46011956      -1.80785020  T        0
O       10.54015907      13.98021156      -4.53197840  T        0
O       13.99284241       7.65139777      -1.67056456  T        0
Si      15.42263192      12.99771892      -1.43910703  T        0
Si      15.33253055      17.43269285      -1.41114927  T        0
Si      13.15862448      15.19133485      -1.34525814  T        0
Si      17.54875880      15.23990409      -1.35666978  T        0
Si      13.42509404       9.02562927      -0.96930976  T        0
Si      11.27683387      13.48214047      -3.14620146  T        0
Si       9.06855224      13.42522834      -0.96897754  T        0
Si      13.55694013      11.23299170      -3.17963608  T        0
H       14.01033133      21.15748981       6.62630180  F        0
H       11.67124922      16.48560174       8.95913012  F        0
H        9.33839640      18.82463975       4.28720704  F        0
H       21.15749781      16.48550533      -0.52720743  F        0
H       18.82463422      21.15752504       1.81198193  F        0
H        9.33840600      16.48559124       6.62628668  F        0
H       14.01032599      18.82464129       8.95915608  F        0
H       11.67126808      21.15750273       4.28721909  F        0
H       16.48550522      21.15749796      -0.52720744  F        0
H       21.15752488      18.82463433       1.81198193  F        0
H       20.83116242       7.34351907       4.61081863  F        0
H       16.80917625       7.34350499       8.63275504  F        0
H       20.83112794      13.68672549      10.95404502  F        0
H       23.15243040       9.66481607       4.61081458  F        0
H       23.15239535      13.68673615       8.63276462  F        0
H       16.80915547       9.66477682      10.95402362  F        0
H        7.34352333       9.66479174       1.48837704  F        0
H        9.66479163       7.34352337       1.48837704  F        0
H       16.48557283      18.82464187      -2.86023677  F        0
H       18.82464171      16.48557294      -2.86023676  F        0
H       13.68673308       9.66480596      -4.85513656  F        0
H        7.34352146      13.68671965      -2.53387758  F        0
H        9.66480591      13.68673318      -4.85513656  F        0
H       13.68671953       7.34352150      -2.53387758  F        0
Fe      13.62328768      13.90348975       1.45559267  T        0
Fe      16.83987542      13.46020727       1.42248602  T        1
O       15.36467854      14.41677908       1.87687166  T        2
