136
Lattice="24.397 0.0 0.0 0.0 24.397 0.0 0.0 0.0 24.397" Properties=species:S:1:pos:R:3:move_mask:L:1:tags:I:1 i=41 E=-6943.8331748197 regions="_JSON [\"Active\"]" n_terminators=32 energy=-912.6752005652005 pbc="F F F"
O       21.64834598       2.60906788       0.10248082  T        0
O       21.89747902       6.16643890       3.52214333  T        0
O       15.56489589       9.68531815       6.24700960  T        0
O       21.00730569      12.46589101       3.52632627  T        0
O       21.00751735       3.55436336      12.49559830  T        0
O       15.53418915       6.32304109       9.76025476  T        0
O       21.87947825      -0.09013327       2.56548290  T        0
O       18.40151518       9.65579985       3.32560047  T        0
O       21.81743390       3.56605481       5.88533674  T        0
O       18.36685364       3.30035810       9.63016917  T        0
O       23.74869817       1.69551295       1.80324190  T        0
O       22.82259504       5.38847363       7.99206545  T        0
O       22.66205094       8.00476776       5.33534508  T        0
O       17.61941872      10.55527241       7.85103679  T        0
O       20.08292814      10.59801448       5.23332129  T        0
O       23.70416715       4.26738291       4.18368044  T        0
O       17.66092550       7.89331305      10.52155585  T        0
O       20.04977524       5.19388055      10.59703444  T        0
O       20.85668473       5.99972926       5.84221654  T        0
O       18.14166556       8.90766981       5.92679094  T        0
O       21.99734233      12.31948084       6.07962319  T        0
O       20.97789127       0.01576057       0.03692959  T        0
O       24.34216867       2.68220568       6.27806605  T        0
O       24.40430984       6.29937339       2.57803519  T        0
O       18.07947071       5.90126658       8.94217154  T        0
O       21.97463684       6.10356279      12.28703276  T        0
O       22.67391697       4.41844246       1.71989483  T        0
O       22.64364848       4.38365680      10.49184692  T        0
O       20.16306058       8.07268542       4.35226558  T        0
O       16.64426825       8.00461442       8.00491196  T        0
O       22.64413461      10.49804836       4.37073493  T        0
O       22.83490500       1.70900342       4.30586955  T        0
O       20.07386472       4.39756259       8.02285032  T        0
Al      23.29514510       3.00722394       0.77658190  T        0
Si      23.65320133       4.88105669       9.28872133  T        0
Si      21.40598769       7.12532451       4.79445374  T        0
Si      16.97602962       9.28065305       7.01973076  T        0
Si      21.39728227      11.48762733       4.79937831  T        0
Si      23.21974264       0.77201672       3.00880515  T        0
Si      19.18027725       9.32279755       4.73874056  T        0
Al      21.44587896       4.86049682       7.10810825  T        0
Si      23.60920329       9.27772506       4.87530574  T        0
Si      23.20933702       3.03108238       5.16853863  T        0
Si      19.15816506       4.71360046       9.29544546  T        0
Si      23.20867811       5.28206708       2.99599932  T        0
Si      21.38612789       4.80271911      11.47039614  T        0
Si      16.96743228       7.02452555       9.30071130  T        0
O       24.61485973       3.62200705       8.80036784  T        0
O       24.58788028       8.76456036       3.65875784  T        0
O       26.29873365       6.72923593       4.26814454  T        0
O       26.33596647       4.22670009       6.72937147  T        0
O       24.48511322       9.82882349       6.14986288  T        0
O       24.61493711       6.07150958       9.91488667  T        0
O       26.32871269       8.06932839       1.84314434  T        0
O       26.23089144       1.77126538       8.01363274  T        0
Si      25.42583716       7.47370907       3.08340135  T        0
Si      25.39631190       3.08467536       7.46961677  T        0
O       24.72247811       2.38237717      -2.78634864  T        0
O       26.29839783       1.83773992      -0.64672531  T        0
O       24.31622489      -0.19196023      -3.52172764  T        0
O       26.48228106       4.19926932      -2.05589268  T        0
Si      25.47708678       3.02514797      -1.45899703  T        0
O       24.61286972      -2.71207734       2.42418039  T        0
O       26.30217699      -0.64700025       1.84720551  T        0
O       24.46474310      -3.72320917      -0.07230822  T        0
O       26.34643964      -1.99369100       4.25629338  T        0
Si      25.42316044      -1.40956567       3.01742159  T        0
O       18.13024698       2.37220042      -3.61739196  T        0
O       20.82545671       2.41859313      -6.24325963  T        0
O       20.09768449       0.71488775      -4.34162165  T        0
O       22.66466998       1.01698215      -1.75904793  T        0
O       18.87148192       1.85744001      -8.06326565  T        0
O       16.28136671       1.88858318      -5.54939974  T        0
O       24.42168675       3.58603593      -0.38476770  T        0
O       18.29323278      -0.09382382      -2.48456506  T        0
O       21.97044728      -0.04882724      -6.15815585  T        0
O       18.32653457       3.45244771      -6.08033775  T        0
O       20.05669268       1.68504229      -1.85028876  T        0
O       22.61393995       1.66953055      -4.33534270  T        0
O       20.15445294       4.30638521      -7.91236791  T        0
O       16.50294475       4.31887508      -4.26052071  T        0
Si      19.12874730       1.17884114      -3.09778376  T        0
Si      21.36053681       1.19814844      -5.27923606  T        0
Si      23.59832875       1.22949234      -3.09474105  T        0
Si      19.54574713       3.01353662      -7.08981024  T        0
Si      21.31867438       1.32155188      -0.88105187  T        0
Si      17.29588873       3.01325114      -4.88046560  T        0
O       17.99121356      -3.44035816       2.42379569  T        0
O       21.00767177      -6.43599828       2.52298609  T        0
O       22.63706277      -1.92351504       0.78663863  T        0
O       20.01821438      -4.49516210       0.98644161  T        0
O       24.37288408      -0.27513118       3.52991052  T        0
O       18.39440103      -2.68810270      -0.16655203  T        0
O       21.92379882      -6.13636252      -0.04312643  T        0
O       20.09872127      -1.90834593       1.66574016  T        0
O       22.62986818      -4.41040420       1.72385457  T        0
Si      21.39083363      -0.97257040       1.27220207  T        0
Si      21.36821694      -5.37423319       1.30140809  T        0
Si      23.59678270      -3.18099654       1.21920960  T        0
Si      19.11184456      -3.15081130       1.23640595  T        0
H       15.43757914      10.38640764       5.57209357  F        0
H       20.10951523      12.72546585       3.23923157  F        0
H       20.10951519       3.23923103      12.72546793  F        0
H       15.43757911       5.57209275      10.38640946  F        0
H       17.77043279      10.38640226       3.23924444  F        0
H       17.77043311       3.23924387      10.38640412  F        0
H       17.22544067      10.92750153       8.65411313  F        0
H       17.22544070       8.65411150      10.92750362  F        0
H       21.54216027      12.99764967       6.60187561  F        0
H       21.54216028       6.60187434      12.99765198  F        0
H       26.95194123       7.17131746       4.82834527  F        0
H       26.95194124       4.82834452       7.17131883  F        0
H       25.19630608       9.34383456       6.60185911  F        0
H       25.19630604       6.60185806       9.34383627  F        0
H       26.93058105       7.58756876       1.24433203  F        0
H       26.93058086       1.24433163       7.58757011  F        0
H       26.95192867       1.27083937      -1.07240246  F        0
H       25.19622735      -0.50276655      -3.24494277  F        0
H       26.93057835       4.85486043      -1.48866112  F        0
H       26.95192866      -1.07240650       1.27083969  F        0
H       25.19622853      -3.24494603      -0.50276481  F        0
H       26.93057847      -1.48866524       4.85486109  F        0
H       19.36968740       1.27081557      -8.65438303  F        0
H       15.74261410       1.27081536      -5.02730892  F        0
H       17.49833355      -0.50278089      -2.85477948  F        0
H       21.54221652      -0.50278066      -6.89866328  F        0
H       19.78593015       4.85484827      -8.63303166  F        0
H       15.76396555       4.85484859      -4.61106623  F        0
H       17.77043326      -4.28747560       2.85995000  F        0
H       20.10952426      -6.62656664       2.85995001  F        0
H       17.49833238      -2.85478383      -0.50277915  F        0
H       21.54221602      -6.89866750      -0.50277915  F        0
Fe      20.62078375       4.04871425       1.21147906  T        0
Fe      20.55107689       4.37476844       4.43331611  T        1
O       19.93653893       5.20483219       0.23045334  T        2
O       19.93086451       3.69074208       2.87940498  T        3
