132
Lattice="20.102 0.0 0.0 0.0 19.731 0.0 0.0 0.0 13.253" Properties=species:S:1:pos:R:3:move_mask:L:1:tags:I:1 i=77 E=-3472.0240129048 regions="_JSON [\"Active\"]" n_terminators=34 energy=-875.2628872618014 pbc="F F F"
O        9.99537527      18.11498885       3.97752140  T        0
O        9.99902049      11.49718851       3.98472647  T        0
O        2.16135958      11.12780889       3.99223173  T        0
O        2.18542408      18.30219317       3.99804336  T        0
O        8.45335251       9.92154530       8.59806183  T        0
O        3.78995505      10.46038207       5.92760263  T        0
O        3.75651005      19.01541228       5.98485613  T        0
O        5.88646691      19.11852081      10.91254701  T        0
O        3.63016168       8.84201567       3.73706535  T        0
O        5.97727822      10.54679331      10.84888081  T        0
O        4.81690380      11.15711755       3.53164610  T        0
O        4.82485058      18.61421234       3.58064169  T        0
O        4.35322447      12.15821660       7.93340331  T        0
O        4.40321714      17.44038518       8.04890310  T        0
O        6.11744695      10.35504604       7.19643713  T        0
O        6.11118883      19.24793906       7.20238331  T        0
O        3.84527769       9.39485823       8.29734911  T        0
O        6.40753481       9.61632062       1.88326791  T        0
O        3.81974957      20.18074220       8.31470389  T        0
O        7.69181654      12.32894459       7.90365708  T        0
O        7.73193398      17.25638875       7.80553267  T        0
O        8.45963646      10.55096018       5.98443791  T        0
O        8.44967136      19.15223476       5.97555794  T        0
O        7.47040188      11.16837405       3.60401149  T        0
O        7.46881377      18.43983766       3.61811770  T        0
O        1.62665916      18.97610811      10.25271624  T        0
O        9.15875044       8.96537478       3.91936723  T        0
O        1.70253961      10.64542332      10.34694582  T        0
O       11.85324089      10.59805401       9.58824047  T        0
O       11.97061711      19.01812534       9.49583370  T        0
O        6.10246761      12.28833548       1.53060334  T        0
O        6.04154067      17.33616121       1.58915559  T        0
O       10.20759142      16.93003535       9.38318285  T        0
O       10.03189603      12.59432435       9.14526513  T        0
O        7.48773341      16.93225234      10.54542704  T        0
O        7.75318242      12.57563393      10.56217304  T        0
O        8.33024866      14.69378154       8.95428226  T        0
O        6.14575532      17.18677591      12.81774114  T        0
O        6.28173873      12.45980106      12.79389472  T        0
O        4.77241157      16.80477689      10.59182073  T        0
O        5.08946419      12.97275837      10.47266978  T        0
O        5.38575725      14.80823158       0.87490932  T        0
O        3.72514346      16.90304894       0.46081987  T        0
O        3.73218152      12.71259589       0.48082043  T        0
O        1.54033286      17.07740901      12.23059278  T        0
O        1.44029246      12.44969960      12.38173487  T        0
O       12.11856284      12.16488122       7.46951909  T        0
O       11.80762071      17.49536419       7.28819469  T        0
O        2.26570869      16.61721860       9.67025886  T        0
O        2.19007942      13.10666202       9.88022138  T        0
O       12.38345077      13.17059746      10.05462959  T        0
O       12.92426090      16.52488244       9.44037930  T        0
O        4.12428261      14.93686049       8.73816354  T        0
Si       3.59853015      10.39243228       4.30386538  T        0
Si       3.51796198      19.18365880       4.37159480  T        0
Si       4.48898601      10.58978179       7.39240722  T        0
Si       4.50648372      19.00519036       7.42214445  T        0
Si       7.69147653      10.73017121       7.39223094  T        0
Si       7.69967830      18.85233068       7.37997847  T        0
Si       8.75369427      10.50028026       4.36006584  T        0
Si       8.76169015      19.11989034       4.35843989  T        0
Si       6.17233534      11.06738768       2.62238941  T        0
Si       6.16649960      18.57665140       2.65430045  T        0
Al       8.55551830      16.42888156       9.26237541  T        0
Si       8.49829898      13.11850855       9.21217020  T        0
Si       6.14215663      17.49127033      11.20681328  T        0
Si       6.27271164      12.15844568      11.17598940  T        0
Si       5.30709103      16.39273424       0.47046072  T        0
Si       5.31336563      13.22882393       0.44832160  T        0
Si       1.23613658      17.43520340      10.66978882  T        0
Si       1.21701590      12.16796269      10.77179644  T        0
Si      11.60131849      12.13502894       9.04537448  T        0
Si      11.66712460      17.48354562       8.94796861  T        0
Si       3.83950016      16.42649668       9.31511195  T        0
Al       3.81876026      13.26787317       9.33326439  T        0
O        8.40782326      19.66152292       8.62624915  T        0
O        3.19442562      20.73999443       3.93282833  T        0
O        6.42583387      20.00797632       1.87973519  T        0
O        9.16069918      20.63799094       3.85295659  T        0
O        1.53353641      12.70418348      15.05605901  T        0
O        1.34187730      17.05600091      14.88665052  T        0
O        5.74890703      12.64188451      15.43599165  T        0
O        5.78233264      16.94050886      15.47535038  T        0
O        5.59505850      14.80351029      13.96201106  T        0
O        3.73096599      16.72949276      13.73347905  T        0
O        3.77999427      12.88801625      13.57647865  T        0
O        1.87345127      14.80655755      13.54445126  T        0
Si       5.31452810      16.41002698      13.98920498  T        0
Si       5.34908089      13.18765478      13.93459766  T        0
Si       2.14249913      16.41029859      13.59998092  T        0
Si       2.17595369      13.20352234      13.62489591  T        0
O        6.01864796      16.46161530      -1.00917294  T        0
O        5.97602521      13.14707092      -1.05518670  T        0
O       -0.39591706      12.34150449      10.41832828  T        0
O       -0.33240671      17.11420857      10.27200842  T        0
H       10.94686465      18.29507790       4.04088346  F        0
H       10.94686465      11.30097846       4.04088346  F        0
H        1.81269882      11.30123319       3.09859993  F        0
H        1.81269882      18.29482316       3.09859994  F        0
H        8.32625906       8.98649408       8.81306681  F        0
H        6.59189912      19.77694965      11.03822749  F        0
H        3.60112680       8.06005012       4.30646574  F        0
H        6.59189033       9.81912404      11.03827922  F        0
H        4.11249823       9.08086468       9.18193973  F        0
H        5.72719027       9.20254625       1.33756862  F        0
H        4.11250309      20.51523557       9.18186357  F        0
H        1.47196681      19.83515306      10.66828905  F        0
H        8.66651872       8.12235896       3.93953912  F        0
H        1.47196499       9.76092419      10.66834598  F        0
H       11.52310774       9.76092419       9.21110646  F        0
H       11.52310955      19.83515307       9.21116341  F        0
H        2.98936131      16.34896307       0.14601228  F        0
H        2.98936131      13.24709329       0.14601228  F        0
H       12.09335996      12.92196996       6.85557054  F        0
H       12.09335995      16.67408638       6.85557055  F        0
H       13.32025657      13.20375310      10.31771692  F        0
H       13.32025658      16.39230324      10.31771692  F        0
H        8.32625906      20.60985804       8.81306681  F        0
H        3.60112680      21.53630199       4.30646574  F        0
H        5.72719026      20.39380587       1.33756863  F        0
H        8.66651872      21.47399316       3.93953912  F        0
H        1.72627225      11.82883678      15.42933042  F        0
H        1.72627225      17.76721957      15.42933043  F        0
H        5.82176689      11.72394931      15.75639142  F        0
H        5.82176689      17.87210706      15.75639142  F        0
H        6.36643797      17.19386972      -1.54340896  F        0
H        6.36643797      12.40218664      -1.54340896  F        0
H       -1.04605969      13.03623234      10.65268580  F        0
H       -1.04605969      16.55982401      10.65268579  F        0
Fe       5.91434140      13.26112342       7.18883457  T        0
Fe       6.04140055      16.24477496       7.25976249  T        1
O        6.04712888      14.77051144       6.20350214  T        2
