147
Lattice="24.397 0.0 0.0 0.0 24.397 0.0 0.0 0.0 24.397" Properties=species:S:1:pos:R:3:move_mask:L:1:tags:I:1 i=41 E=-6943.8331748197 regions="_JSON [\"Active\"]" n_terminators=24 energy=-1044.3853128066837 pbc="F F F"
O        9.47171500      14.65921590      -0.00775645  T        0
O       12.18370766       9.56236908       2.64242812  T        0
O       14.79396562      20.90353071       6.13618680  T        0
O       12.10306916      15.72495211       8.65148776  T        0
O        9.64284663      18.41655954       3.65106818  T        0
O       15.60335077       9.71289162       6.43015031  T        0
O       18.30051865      14.82511088       8.88707736  T        0
O       21.12111232      12.23682859       3.49176893  T        0
O       21.03270739      15.63634959      -0.06042876  T        0
O       18.31956706      21.05881021       2.63635052  T        0
O       14.68304869       9.51006204      -0.02869042  T        0
O        9.59081254      12.15013732       2.64435660  T        0
O       21.07913310      14.83299021       6.10661736  T        0
O       15.60539549      11.99844175       8.70052443  T        0
O       18.24610603       9.36930926       3.51932914  T        0
O        9.75870362      15.70886895       6.31565353  T        0
O       14.83171231      18.32109693       8.73891735  T        0
O       12.16584463      20.89667272       3.60364027  T        0
O       15.64658107      21.05621719      -0.04219170  T        0
O       21.08049664      18.26372463       2.60569281  T        0
O       11.52949083      13.82979901       1.83610509  T        0
O       13.81345727      11.53547700       1.82014458  T        0
O       13.06254102      20.24545426       8.09466815  T        0
O       10.21410034      17.56031037       8.19990111  T        0
O       10.14963355      20.38864819       5.37323074  T        0
O       19.23636737      16.46546609       1.78118661  T        0
O       16.51377643      19.23876058       1.76145627  T        0
O       10.25395061      10.22500704       0.91939124  T        0
O       11.42494298      16.58623180       4.43665487  T        0
O       14.08234273      19.15786302       4.24872107  T        0
O       14.08568032      16.45129069       6.98661586  T        0
O       19.24804164      14.00498436       4.28560496  T        0
O       16.67294543      11.29943632       4.52724291  T        0
O       16.53994021      13.96425866       7.05513815  T        0
O       12.07648746      12.05413507       3.75947945  T        0
O       12.25746141      21.79630155       6.11695840  T        0
O       12.33044073      18.21369708       9.64053469  T        0
O        8.75465922      18.23044752       6.14037965  T        0
O       18.47628935      18.44623677       3.34009779  T        0
O       12.16341851       8.65441659       0.07928443  T        0
O        8.67261398      12.12319614       0.08612320  T        0
O       12.28716081      14.71558334       6.11149855  T        0
O       12.11739526      18.40705711       2.65359262  T        0
O       15.70166638      18.39454456       6.19772958  T        0
O       18.49088896      15.56049349       6.26226746  T        0
O       18.53272611      11.97839464       2.78476101  T        0
O       14.74915398      12.26007301       6.10238719  T        0
O       10.35389563      16.48919241       2.00283983  T        0
O       14.08104104      10.46635073       4.31905344  T        0
O       14.10512878      22.73909949       7.85866529  T        0
O       10.53200077      16.47855462      10.65206001  T        0
O        7.63538474      19.92531166       4.42724327  T        0
O       10.53707024      22.83727491       4.31507006  T        0
O       20.04903372      13.91327871       1.71856629  T        0
O       16.59633072      20.05351660       4.33112517  T        0
O       16.47153506      10.44053192       1.99920630  T        0
O       10.47770032      14.03644459       4.33486834  T        0
O        7.79394500      16.38427283       7.88243929  T        0
O       14.08488136      20.01566798      10.60243517  T        0
O       13.96113247      20.08767870       1.74474932  T        0
O       20.06585448      16.55422573       4.34463529  T        0
O        7.76165108      10.40260419       1.96673619  T        0
O       16.59431279      16.52391225       7.86657102  T        0
O       13.98863166      13.95051826       7.94375026  T        0
O       10.43670000       7.72635811       1.94414186  T        0
Al      10.80814155      15.23889494       0.91118293  T        0
Si      13.05336139      10.86067984       3.09445080  T        0
Si      13.54116511      21.42510709       7.05322628  T        0
Si      11.28857313      17.01418960       9.29822877  T        0
Si       9.05606699      19.26188485       4.90380915  T        0
Si      19.68880320      15.22870118       0.80885192  T        0
Si      17.48009338      19.69014497       3.00523546  T        0
Al      15.23104753      10.85438820       0.89335308  T        0
Si      10.87817395      13.02998362       3.09994881  T        0
Si       9.11598448      16.99472500       7.12655054  T        0
Si      13.56534027      19.22106790       9.26607418  T        0
Si      11.27250131      21.46961460       4.85283638  T        0
Si      15.25570154      19.70448519       0.81952587  T        0
Si      19.71116207      17.43716850       3.01004865  T        0
Si       9.05466364      11.22985677       1.37926488  T        0
Si      10.93111748      15.29446945       5.26968092  T        0
Si      13.07876693      19.65006057       3.05416140  T        0
Si      15.31563006      17.44599686       7.45072411  T        0
Si      19.73088480      15.23277370       5.24530571  T        0
Si      17.48705022      10.78841808       3.16087106  T        0
Si      15.27715849      13.04790359       7.49607721  T        0
Si      11.26389093       9.02730538       1.37261003  T        0
Si      15.32087633      10.87337820       5.30391037  T        0
Si      19.73765628      13.02959959       3.06306691  T        0
Si      17.50770287      15.22694799       7.50247489  T        0
Si      15.29527644      19.64209246       5.22329712  T        0
Si      10.87349818      17.47131600       3.13838913  T        0
Si      13.11253696      15.25190357       7.47740761  T        0
O       14.64304412      12.19851956      -2.54958327  T        0
O       15.65436939      18.32586521      -2.77366556  T        0
O       12.17877290      14.66860242      -2.54724562  T        0
O       18.30316571      15.66843605      -2.78274134  T        0
O       14.01333922      14.04149007      -0.68477312  T        0
O       16.55853381      16.57343676      -0.92032493  T        0
O       12.98383518      10.09505808      -2.01487061  T        0
O       10.08380251      12.99654055      -2.01079676  T        0
O       12.19726362      15.71004156      -0.03555908  T        0
O       15.69858194      12.24683226      -0.04311370  T        0
O       18.43813287      14.87848130      -0.18633224  T        0
O       14.88080538      18.46042177      -0.17380784  T        0
O       12.14119520      12.15956807      -3.44156911  T        0
O       16.46030230      14.06321708      -1.84580806  T        0
O       14.01132617      10.50296228      -4.47487318  T        0
O        7.51315652      13.78212996      -1.58752106  T        0
O       14.03192190      16.49435097      -1.82174342  T        0
O       10.48519368      14.03938251      -4.46340867  T        0
O       13.87740197       7.55427649      -1.61101092  T        0
Si      15.25986573      13.08506623      -1.32603401  T        0
Si      15.28076204      17.47513099      -1.41066898  T        0
Si      13.05155117      15.28850153      -1.31448911  T        0
Si      17.45482931      15.29502343      -1.41951480  T        0
Si      13.45216633       8.97239409      -0.89520007  T        0
Si      11.20652556      13.45722271      -3.10208807  T        0
Si       8.95535366      13.42298603      -0.88206776  T        0
Si      13.43732811      11.22027967      -3.10762851  T        0
H       16.48559112       9.33840607       6.62628668  F        0
H       18.82464116      14.01032609       8.95915608  F        0
H       21.15750258      11.67126816       4.28721909  F        0
H       21.15749781      16.48550533      -0.52720743  F        0
H       18.82463422      21.15752504       1.81198193  F        0
H       21.15748967      14.01033142       6.62630180  F        0
H       16.48560162      11.67124930       8.95913012  F        0
H       18.82463962       9.33839646       4.28720704  F        0
H       16.48550522      21.15749796      -0.52720744  F        0
H       21.15752488      18.82463433       1.81198193  F        0
H       13.68673605      23.15239550       8.63276462  F        0
H        9.66477675      16.80915558      10.95402362  F        0
H        7.34351903      20.83116256       4.61081863  F        0
H        9.66481601      23.15243056       4.61081458  F        0
H        7.34350493      16.80917637       8.63275504  F        0
H       13.68672539      20.83112809      10.95404502  F        0
H        7.34352333       9.66479174       1.48837704  F        0
H        9.66479163       7.34352337       1.48837704  F        0
H       16.48557283      18.82464187      -2.86023677  F        0
H       18.82464171      16.48557294      -2.86023676  F        0
H       13.68673308       9.66480596      -4.85513656  F        0
H        7.34352146      13.68671965      -2.53387758  F        0
H        9.66480591      13.68673318      -4.85513656  F        0
H       13.68671953       7.34352150      -2.53387758  F        0
Fe      13.69407047      13.71166188       1.41895698  T        0
Fe      13.64850438      13.61289215       4.69592208  T        0
O       14.26627710      14.24457995       3.12775928  T        0
