136
Lattice="24.397 0.0 0.0 0.0 24.397 0.0 0.0 0.0 24.397" Properties=species:S:1:pos:R:3:move_mask:L:1:tags:I:1 i=41 E=-6943.8331748197 regions="_JSON [\"Active\"]" n_terminators=24 energy=-953.6490657960767 pbc="F F F"
O        9.62756477      14.60123950      -0.03886303  T        0
O       12.30782285       9.48760721       2.57465100  T        0
O       14.90155205      20.81766336       6.40651243  T        0
O        9.31915551      18.02663827       3.74654431  T        0
O       15.63861478       9.80909840       6.52787426  T        0
O       21.08064132      12.19488546       3.47347927  T        0
O       20.95384539      15.76351010       0.08465531  T        0
O       18.22897501      20.84632428       2.48534201  T        0
O       14.73242722       9.54204524       0.08463456  T        0
O        9.64959963      12.26692432       2.48535125  T        0
O       20.68682338      14.85731864       6.52786560  T        0
O       18.30103145       9.41526573       3.47346298  T        0
O        9.67826018      15.59437179       6.40653315  T        0
O       12.46922502      21.17674641       3.74648992  T        0
O       15.89466675      20.86832871      -0.03885166  T        0
O       21.00830229      18.18808163       2.57463232  T        0
O       11.67700376      13.97313614       1.94818677  T        0
O       14.02451621      11.43039163       1.88939954  T        0
O       19.06548509      16.47139947       1.88941912  T        0
O       16.52278001      18.81888644       1.94818763  T        0
O       10.33292380      10.22631769       0.89981982  T        0
O       11.38972709      16.49066339       4.49728645  T        0
O       14.00522512      19.10619888       4.49728017  T        0
O       19.23960548      13.89270210       4.45857911  T        0
O       16.60320279      11.25629838       4.45855748  T        0
O       20.26960347      20.16301693       0.89983510  T        0
O       12.07059692      11.95698657       3.60100338  T        0
O       18.53894423      18.42534680       3.60101438  T        0
O       12.23280882       8.61487846       0.04451663  T        0
O        8.70257217      12.08625511      -0.02331449  T        0
O       12.19460359      14.57772451       6.22072476  T        0
O       11.84497052      18.65091883       3.06496403  T        0
O       15.91818729      18.30131155       6.22069084  T        0
O       18.19331672      15.77878113       6.07800488  T        0
O       18.46384041      12.03207444       2.75361739  T        0
O       14.71715671      12.30260265       6.07801856  T        0
O       18.40965246      21.79335155      -0.02331453  T        0
O       21.88102845      18.26312507       0.04450574  T        0
O       10.53199440      16.59406875       1.94251292  T        0
O       14.08214686      10.40301955       4.38107914  T        0
O       20.06062379      13.98286383       1.87915164  T        0
O       16.52253670      20.01977703       4.37650790  T        0
O       16.51306912      10.43528252       1.87912799  T        0
O       10.47614313      13.97336286       4.37653185  T        0
O       13.90182041      19.96389221       1.94249584  T        0
O       20.09289774      16.41376520       4.38106705  T        0
O       20.09233015      22.66638560       1.90847098  T        0
O        7.82956409      10.40356335       1.90847480  T        0
O       22.79694506      20.01249576       1.88309605  T        0
O       10.48341831       7.69897621       1.88309319  T        0
Al      10.87831781      15.27273522       0.91853422  T        0
Si      13.11082371      10.80015889       3.13226761  T        0
Si      19.66488249      15.25216837       0.94630884  T        0
Si      17.45557767      19.54921792       3.12398510  T        0
Si      15.24375697      10.83101225       0.94629156  T        0
Si      10.94669712      13.04033350       3.12399678  T        0
Al      15.22317679      19.61757308       0.91854472  T        0
Si      19.69574748      17.38509901       3.13226858  T        0
Si       9.11370794      11.24368071       1.30998702  T        0
Si      10.92011649      15.20361266       5.38878965  T        0
Si      13.06443817      19.70668590       3.28096817  T        0
Si      19.56237038      15.21385355       5.37593878  T        0
Si      17.47158417      10.80052800       3.15044553  T        0
Si      21.49013235      19.17549933       1.34767622  T        0
Si      11.32042541       9.00578205       1.34767756  T        0
Si      15.28206751      10.93354568       5.37594398  T        0
Si      19.69537997      13.02433383       3.15045881  T        0
Si      15.29229186      19.57580223       5.38876611  T        0
Si      10.78921383      17.43144611       3.28098603  T        0
Si      19.25222791      21.38222677       1.30999084  T        0
O       14.76889646      12.15843076      -2.60563502  T        0
O       15.86244799      18.30620101      -2.57924341  T        0
O       12.18971846      14.63344436      -2.57924565  T        0
O       18.33748292      15.72700011      -2.60563199  T        0
O       14.11455529      13.97795771      -0.77299620  T        0
O       16.51795158      16.38134440      -0.77300802  T        0
O       13.05663064      10.21224363      -1.90507829  T        0
O       10.14062479      12.92823255      -2.07547676  T        0
O       17.56766341      20.35528512      -2.07546610  T        0
O       20.28366270      17.43928477      -1.90507550  T        0
O       12.36317325      15.60283726      -0.02477833  T        0
O       15.69776332      12.02523361      -0.07196125  T        0
O       18.47067331      14.79814615      -0.07195317  T        0
O       14.89308594      18.13271726      -0.02477052  T        0
O       12.23962535      12.14728047      -3.50082167  T        0
O       18.34861581      18.25627068      -3.50080225  T        0
O       16.60968736      13.88621485      -1.75192902  T        0
O       14.11388630      10.41403143      -4.40888140  T        0
O       22.78374271      16.42089615      -1.71731598  T        0
O       16.53291885      19.95140099      -4.53747741  T        0
O        7.66585301      13.95578741      -1.66090094  T        0
O       14.09674685      16.39915751      -1.94206969  T        0
O       10.54449611      13.96302289      -4.53746367  T        0
O       16.54009693      22.83005730      -1.66087206  T        0
O       20.08187580      16.38201864      -4.40887285  T        0
O       14.07499673       7.71215385      -1.71734051  T        0
Si      15.32475211      12.98109501      -1.32383161  T        0
Si      15.30216745      17.36174539      -1.39026944  T        0
Si      13.13415728      15.19373961      -1.39026516  T        0
Si      17.51481547      15.17114363      -1.32383204  T        0
Si      13.51318474       9.01063565      -0.88488422  T        0
Si      11.24954249      13.40537799      -3.16369053  T        0
Si      17.08575130      21.45663798      -0.93931218  T        0
Si      19.28076757      16.97703376      -3.11097579  T        0
Si       9.03927106      13.41014911      -0.93932711  T        0
Si      13.51886948      11.21514020      -3.11098350  T        0
Si      21.48526530      16.98273669      -0.88487518  T        0
Si      17.09052740      19.24636710      -3.16368391  T        0
H       14.01033133      21.15748981       6.62630180  F        0
H        9.33839640      18.82463975       4.28720704  F        0
H       16.48559112       9.33840607       6.62628668  F        0
H       21.15750258      11.67126816       4.28721909  F        0
H       21.15748967      14.01033142       6.62630180  F        0
H       18.82463962       9.33839646       4.28720704  F        0
H        9.33840600      16.48559124       6.62628668  F        0
H       11.67126808      21.15750273       4.28721909  F        0
H       12.70105695      15.05290863       6.89848520  F        0
H       15.44301084      17.79487314       6.89846715  F        0
H       17.79487301      15.44301094       6.89846715  F        0
H       15.05290853      12.70105704       6.89848521  F        0
H       20.83112530      23.15241223       1.48839475  F        0
H        7.34352333       9.66479174       1.48837704  F        0
H       23.15241204      20.83112542       1.48839475  F        0
H        9.66479163       7.34352337       1.48837704  F        0
H       13.68673308       9.66480596      -4.85513656  F        0
H       23.15240156      16.80916493      -2.53384338  F        0
H       16.80913871      20.83112323      -4.85512183  F        0
H        7.34352146      13.68671965      -2.53387758  F        0
H        9.66480591      13.68673318      -4.85513656  F        0
H       16.80916481      23.15240172      -2.53384338  F        0
H       20.83112308      16.80913882      -4.85512183  F        0
H       13.68671953       7.34352150      -2.53387758  F        0
Fe      16.03885163      16.86972256       1.45300932  T        0
Fe      13.62615700      14.45705029       1.45303402  T        1
O       14.72301699      15.77287693       2.59946304  T        2
O       15.60021103      14.89568468       1.73440715  T        3
