135
Lattice="19.123 0.0 0.0 0.0 14.277 0.0 0.0 0.0 7.5465" Properties=species:S:1:pos:R:3:move_mask:L:1:tags:I:1 i=128 E=-2603.9155142701 regions="_JSON [\"Active\"]" n_terminators=32 energy=-907.0676397211658 pbc="F F F"
O        6.02486496       1.12849908       1.43398792  T        0
O       15.55460821       8.46708011       5.86528317  T        0
O        3.30351479       8.49657682       5.93846785  T        0
O        5.93772163      13.15740302       1.38939645  T        0
O       15.77197946       5.87186168       5.47088899  T        0
O       13.29218274      13.14423030       1.34709598  T        0
O        3.34793318       5.78919294       5.91338789  T        0
O       13.12322633      13.12742104       6.08833566  T        0
O        3.38940311       5.76823512       1.66986545  T        0
O        6.07081875      13.12897881       6.05326045  T        0
O       15.92669839       5.81841185       1.81110727  T        0
O        3.40416147       8.45687286       1.68919231  T        0
O        6.02981091       1.13459884       6.09317238  T        0
O       15.68443612       8.44338618       1.65500939  T        0
O        7.28030932       3.35239479       2.44641225  T        0
O       17.24018031      10.54041620       6.23228089  T        0
O       12.06542889       3.07820837       2.79655646  T        0
O        2.02168982      10.88053511       6.08931179  T        0
O        7.26396709      10.94290928       2.38799395  T        0
O       12.06080027      10.89571084       2.32580590  T        0
O        2.03263863       3.41874511       6.07104078  T        0
O       12.02568756      10.77165740       5.21516048  T        0
O        1.99429632       3.45978873       1.45212328  T        0
O        7.27873279      10.89950094       5.04333331  T        0
O       11.58732066       3.52370050       5.34909974  T        0
O        2.09150892      10.77864125       1.35406424  T        0
O        7.32496609       3.31695270       5.07388749  T        0
O       17.28962549      10.58460735       1.35552053  T        0
O        6.62602812       3.29760378      -0.05372391  T        0
O       16.37235828       9.92510623       3.77979421  T        0
O        3.02583274      10.09284103       3.78527457  T        0
O        6.45878381      11.17929311      -0.17408104  T        0
O       13.20913033      10.93725865      -0.15167247  T        0
O        3.03656303       4.17775375       3.78131496  T        0
O        4.67835126       3.43402868       1.80315086  T        0
O       14.66646987      10.98794917       5.52736740  T        0
O        4.69896703      10.80600237       5.73091257  T        0
O        4.70491064      10.77632660       1.81720195  T        0
O       14.68915486      10.92493416       1.98641525  T        0
O        4.72662667       3.47815912       5.71508178  T        0
O       11.45660463       8.28131644       3.56595523  T        0
O        7.62578100       8.55751836       3.67129986  T        0
O        1.80624619      13.13063949      -0.01923009  T        0
O       11.61970346       5.64306168       3.64776368  T        0
O        7.60184182       5.67010514       3.77400648  T        0
O        9.55148112      10.18249050       3.59199564  T        0
O       -0.03861693      11.18819995      -0.29819944  T        0
O        9.59040383       3.90004647       3.68318229  T        0
O       13.37001931       7.08482431       5.13081849  T        0
O        5.45279521       7.20663074       5.05919739  T        0
O        5.69821329       7.10231120       2.23821512  T        0
O       13.56543709       6.99906556       2.45922368  T        0
O       14.24056568       6.88352671      -0.05953479  T        0
O        4.94341956       7.09326761      -0.12844836  T        0
Si       6.13777175       2.78035348       1.44408094  T        0
Si      15.94559307       9.98935961       5.36569608  T        0
Si       3.27765829      10.04902017       5.41538374  T        0
Si       6.09876952      11.51239690       1.39251544  T        0
Si      13.25777021      11.48168798       1.41332205  T        0
Si       3.30557496       4.22770258       5.40559418  T        0
Si      13.19959472      11.46439236       6.09497602  T        0
Si       3.28141579       4.19085978       2.17302987  T        0
Si       6.14733833      11.47488293       6.09276923  T        0
Si       3.29426907      10.03803008       2.17743355  T        0
Si       6.16583556       2.78662353       6.09954267  T        0
Si      15.99502894       9.97491720       2.18079549  T        0
Al      11.35915505      10.15329691       3.73475789  T        0
Si       7.90994411      10.18714109       3.71229357  T        0
Si       1.55481232      11.49205515      -0.04335233  T        0
Si      11.21516101       4.05298170       3.83254342  T        0
Si       7.95299192       4.09227118       3.76416917  T        0
Si      14.75681521       7.05283093       6.04046833  T        0
Si       4.26205698       7.15383810       6.12596528  T        0
Si       4.26934625       7.10547704       1.44087887  T        0
Si      14.86751564       7.04199228       1.46411390  T        0
Si      12.53228743       7.00857728       3.72240226  T        0
Al       6.61126639       7.09623536       3.81341831  T        0
O        6.67957220       3.23463231       7.59588393  T        0
O        6.67585762      11.04787441       7.59146516  T        0
O       13.17718006      10.95294414       7.67050908  T        0
O       14.31463105       6.77854918       7.61207199  T        0
O        4.96153167       7.16032637       7.61881381  T        0
O        3.56367400       8.45917981      -1.96988831  T        0
O        3.25666603       5.84309284      -1.89307458  T        0
O        6.30059459      13.05403668      -2.18867912  T        0
O        2.35176318      10.76390159      -1.29035697  T        0
O        7.55393816      10.81339445      -5.32857750  T        0
O        7.47344156      10.73516541      -2.60271413  T        0
O        2.74324385      10.21961799      -3.84908337  T        0
O        4.83987465      10.77982938      -2.25590196  T        0
O        7.30651994       8.47122769      -4.01054806  T        0
O        7.80661525       5.87298430      -3.92164458  T        0
O        9.62075398       9.73668035      -3.98075459  T        0
O        5.68028153       6.88833070      -2.61982695  T        0
O        5.68482713       6.70274516      -5.32297918  T        0
Si       3.37942351      10.06005221      -2.33678597  T        0
Si       6.25217717      11.45876906      -1.78584626  T        0
Si       7.99638605       9.97113162      -3.97080123  T        0
Si       4.34553780       7.05977977      -1.71113350  T        0
Si       6.61116920       6.99902172      -3.98563017  T        0
H        5.61083456       0.52083913       2.07985367  F        0
H        5.61112307      13.75835362       2.07975607  F        0
H       15.75636517       4.89339805       5.45628994  F        0
H       13.50958039      13.75682243       2.07498241  F        0
H       13.51084140      13.75504172       5.44776650  F        0
H        5.62495998      13.75277707       5.44935724  F        0
H       15.75706449       4.89440344       2.08043705  F        0
H        5.62509051       0.52255101       5.44942550  F        0
H       17.28974254      11.12548174       7.01862795  F        0
H       12.44565577       3.15588527       1.90033815  F        0
H        1.83343022      11.12554006       7.01950242  F        0
H        1.81954193       3.15353441       6.98813474  F        0
H        1.83183800       3.14857954       0.53722786  F        0
H       12.44354748       3.15657450       5.63339447  F        0
H       17.29120144      11.12876736       0.54010345  F        0
H        6.35952436       2.97904956      -0.93427223  F        0
H       12.76174962      11.29928001      -0.93393629  F        0
H        2.56257806      13.76129914       0.00087584  F        0
H       -0.96427299      11.34215683       0.00103770  F        0
H       14.60982961       7.13673871      -0.92783774  F        0
H        6.35949513       2.97597070       8.47938261  F        0
H        6.35946036      11.30224636       8.48133548  F        0
H       12.76333233      11.30075111       8.47967776  F        0
H       14.61405599       7.13800201       8.47661577  F        0
H        4.50898861       7.14016697       8.47499567  F        0
H        3.36064390       4.89097090      -2.09366187  F        0
H        5.62495998      13.75277707      -2.09714276  F        0
H        6.67686405      11.12256578      -5.64493030  F        0
H        3.19736723      10.11759060      -4.70766930  F        0
H        7.80677964       4.90364681      -3.78479629  F        0
H       10.52611047      10.07370688      -3.78446723  F        0
H        4.87243006       7.14046961      -5.64294599  F        0
Fe       9.55383345       8.10389926       2.66628884  T        0
Fe       7.04428872       7.21290490       0.66971892  T        1
O        8.77382309       7.49507847       1.07338379  T        2
