142
Lattice="20.102 0.0 0.0 0.0 19.731 0.0 0.0 0.0 13.253" Properties=species:S:1:pos:R:3:move_mask:L:1:tags:I:1 i=77 E=-3472.0240129048 regions="_JSON [\"Active\"]" n_terminators=30 energy=-979.3444087377918 pbc="F F F"
O        9.92563619       8.26935254       9.30847446  T        0
O       10.15249781      11.40494554       4.29124808  T        0
O        2.09546413      11.27524807       4.03270547  T        0
O        7.44449903       8.14949577      10.45710986  T        0
O       17.62002231       8.12084952       9.52118402  T        0
O       12.45987150      10.80599314       2.88118091  T        0
O        7.82594376       7.34509845       7.97239059  T        0
O       11.75195554      16.86639270       4.78896641  T        0
O       12.43545487      12.65165882       4.79428574  T        0
O        7.99843781       9.96111661       8.60408921  T        0
O       11.98488353      10.13989696       5.53511845  T        0
O        3.51813936      10.57649732       6.16784401  T        0
O       16.46318659       8.59972125       7.18484754  T        0
O       13.58905027      10.84803374       0.50199794  T        0
O        2.99449911       8.80782563       4.18821811  T        0
O       16.48226289      10.54492779       8.97656029  T        0
O       13.96852833       8.76701947       2.25011347  T        0
O       16.75055668      18.98383630       9.39742981  T        0
O        4.76532095      10.82897053       3.80583680  T        0
O       14.96817819       8.33106041       9.31961637  T        0
O       15.12598617      11.10471149       2.73370552  T        0
O        3.86107847      12.46311974       7.98363466  T        0
O       14.07673159      17.13608521      12.09760213  T        0
O       16.23304533       7.38715171       4.86958206  T        0
O       14.43324820      12.37006293      12.08214373  T        0
O        5.89053844      10.81255194       7.23436291  T        0
O       14.10877627       8.59742918       5.92502980  T        0
O       16.17388164      10.70447278      13.30118620  T        0
O        3.86269464       9.96437246       8.84569626  T        0
O        5.68842441      10.17394666       1.32636939  T        0
O       16.13016065      10.01060290       4.95192758  T        0
O       14.53192905       9.80890239      11.37265251  T        0
O        7.68297400      12.56217594       8.19494284  T        0
O        7.77343209      17.18277132       7.68943204  T        0
O       11.80031586       7.48153361       5.18357549  T        0
O        8.39620697      10.95641469       6.20590163  T        0
O       11.97523659       8.44664798       7.56341899  T        0
O        7.31296539      11.14365205       3.35099681  T        0
O       12.43208234       8.72863062      10.13665504  T        0
O       17.73696743      11.48038215       3.33171546  T        0
O        8.90614149       8.89802190       4.35492332  T        0
O       11.02378960      10.58871634       8.70335204  T        0
O       11.92560774      19.01379951       9.52889122  T        0
O        5.52280302      12.68788806       2.03137353  T        0
O       16.28988159      17.16331599       4.64677677  T        0
O       13.90293176       7.12995627      11.54328553  T        0
O       15.95615730      12.64036246       4.80293668  T        0
O        9.95392434      17.14780659       9.31769335  T        0
O        9.92426993      13.04137436       9.59604088  T        0
O        9.99352566       6.61298358       3.45523487  T        0
O        7.61875029      17.23652148      10.44191599  T        0
O        7.51687060      13.25307647      10.77752033  T        0
O       18.02265378      12.47121948       9.77989680  T        0
O       12.58727791       6.50915405       2.88759848  T        0
O       17.76192135      16.47418583       9.44175658  T        0
O        8.29287776      15.03599473       8.97189059  T        0
O       11.62206179       4.90758438       4.84369954  T        0
O       16.70106411      12.70014112       7.39243668  T        0
O       13.48234377       6.75057661       0.52130768  T        0
O       16.42239839      17.26674700       7.32971020  T        0
O       15.39169645      12.90852224       9.66651217  T        0
O       15.24907501       6.49740644       2.53405755  T        0
O       15.10158213      16.87527665       9.61298897  T        0
O       15.97246522      14.95359233       6.08531578  T        0
O        5.89855567       6.50911984       6.28995480  T        0
O       14.18193455      13.08040003       6.74240108  T        0
O       14.08785122      16.88995256       6.14717151  T        0
O        7.74322790       4.79054031       7.41547328  T        0
O       12.30448991      14.90296190       6.30327626  T        0
O        8.31969953       6.51133062       5.43419128  T        0
O       11.59469548      12.60864177       7.29903435  T        0
O       11.82186771      17.27820375       7.45269488  T        0
O        7.40569923       7.26616472       2.96416559  T        0
O       12.77557678      12.65892229      10.00615686  T        0
O       17.86965476       6.30162496       3.01886998  T        0
O       12.49291746      16.53108067       9.94177080  T        0
O       16.15948747       4.82976878       4.45424864  T        0
O       14.12837368      14.77241248      11.00579672  T        0
Si       8.30821083       8.42716026       9.08260468  T        0
Si      11.76183287      11.25497701       4.26910410  T        0
Si       3.38091948      10.37703784       4.53510122  T        0
Si      16.39668787       8.93087893       8.78173412  T        0
Si      13.82342127      10.37851878       2.05676484  T        0
Si       4.28052855      10.92831637       7.56532509  T        0
Si      15.73029023       8.65158714       5.74214150  T        0
Si      14.67821065      10.84441431      12.61505943  T        0
Si       7.44691267      11.08606901       7.55687049  T        0
Si      12.50259693       8.63432372       6.04648154  T        0
Al       8.56175052      10.59086982       4.38962309  T        0
Si      11.34806633       9.00488235       8.96715544  T        0
Si       5.86037861      11.18179884       2.62895971  T        0
Si      13.97913898       8.48207014      10.61745178  T        0
Si      16.22678168      11.28368324       3.94281563  T        0
Si       8.40823873      16.65000249       9.11568751  T        0
Si       8.39367829      13.46560176       9.39112852  T        0
Si      11.48335841       6.34518299       4.06533483  T        0
Si      16.63315977      12.16525871       8.94621329  T        0
Si      13.82604993       7.14766295       2.07134371  T        0
Si      16.49595529      17.41271706       8.95511496  T        0
Si      15.72492574      13.35187097       6.25416455  T        0
Si      15.68451967      16.56043168       6.05198440  T        0
Si       7.46133436       6.28489790       6.78710450  T        0
Si      12.64750661      13.33118336       6.27364295  T        0
Si      12.50630873      16.50534629       6.19707696  T        0
Si       8.64345883       7.34774949       4.05693245  T        0
Al      11.39125289      12.31007695       9.08203382  T        0
Si      11.52367535      17.48990508       9.05155758  T        0
Si      14.13797730      13.17301009      10.67950121  T        0
Si      16.37315076       6.26920712       3.70483363  T        0
Si      13.95745738      16.35096315      10.65813729  T        0
O       13.53676631      10.35048394      13.67598885  T        0
H        1.81269882      11.30123319       3.09859993  F        0
H        7.07153747       8.87866318      10.98534327  F        0
H       18.28958667       8.42947104      10.15436836  F        0
H       11.77741499      17.76721957       4.45015374  F        0
H       14.08297195      10.81847671      -0.34490677  F        0
H        3.60112680       8.06005012       4.30646574  F        0
H       16.64304187      19.77694965       8.84122497  F        0
H        4.03182275      12.92715973       8.82439874  F        0
H       14.40563884      18.04556895      12.19637069  F        0
H       16.97340651      10.80641058      12.75613404  F        0
H        4.11249823       9.08086468       9.18193973  F        0
H        5.72719027       9.20254625       1.33756862  F        0
H        7.69777211      18.11826613       7.44841170  F        0
H       18.17502404      10.93300163       2.66186473  F        0
H       11.52310955      19.83515307       9.21116341  F        0
H        5.53537813      12.95496052       1.09262639  F        0
H       15.87290964      17.87210703       4.12309272  F        0
H       14.56690736       6.77574372      12.16034191  F        0
H        6.74596320      16.92620537      10.74076342  F        0
H        6.74596321      12.66985099      10.74076342  F        0
H       18.05303808      13.25020103      10.35989921  F        0
H       18.05303809      16.34585533      10.35989921  F        0
H       11.61525895       4.01919395       4.45233654  F        0
H       14.23421140       6.74908840      -0.07819396  F        0
H        5.18772305       6.48136951       6.94399129  F        0
H        7.92514400       4.01763560       6.85279547  F        0
H        6.78202892       6.52695113       2.93525138  F        0
H       18.37141860       7.12308619       2.89672377  F        0
H       16.04230867       4.00312851       3.96597142  F        0
H       13.51650676      10.58100877      14.61047976  F        0
Fe      10.35468477      11.09143181       6.69582517  T        1
