136
Lattice="24.397 0.0 0.0 0.0 24.397 0.0 0.0 0.0 24.397" Properties=species:S:1:pos:R:3:move_mask:L:1:tags:I:1 i=41 E=-6943.8331748197 regions="_JSON [\"Active\"]" n_terminators=30 energy=-930.0942713223361 pbc="F F F"
O        9.40828740      14.63678566      -0.03852563  T        0
O       12.23193999       9.38046901       2.66181885  T        0
O       12.36496406      15.80224232       8.86394507  T        0
O        9.45668826      18.40052040       3.42808675  T        0
O       15.62618859       9.46192611       6.18809767  T        0
O       21.07344436      12.41246395       3.65202726  T        0
O       21.05743200      15.77677907       0.14109608  T        0
O        5.72789949       8.79343021       2.47488796  T        0
O       14.67478742       9.45264709      -0.16277468  T        0
O        9.46451789      12.37227005       2.52468422  T        0
O       15.80292276      12.36606212       8.87164082  T        0
O       18.32373190       9.42337290       3.46374397  T        0
O        9.48176873      15.63130373       6.17429835  T        0
O       12.41806219      21.07258235       3.66020954  T        0
O       15.80195508      21.08164869       0.16799125  T        0
O        8.70638393       5.64994980       2.30209073  T        0
O       11.61518807      13.78606565       1.74138761  T        0
O       13.78086380      11.38959412       1.87544986  T        0
O       19.00192365      16.64267160       1.74565776  T        0
O       16.63381467      18.99913480       1.74953164  T        0
O       10.38409375      10.38073420       1.05750093  T        0
O       11.28466270      16.71042049       4.50308822  T        0
O       13.99914559      18.94638064       4.39573163  T        0
O       13.96316348      16.62404275       6.78371489  T        0
O       18.95023766      13.99227259       4.40484194  T        0
O       16.56622838      11.25938668       4.39480831  T        0
O       16.63111931      13.95583272       6.79029984  T        0
O        7.71436498       7.78538497       0.98697267  T        0
O       11.87575747      11.89514307       3.61038980  T        0
O       12.12825263       8.72959033       0.02657782  T        0
O        8.73805935      12.07469934      -0.06910478  T        0
O       12.07470791      14.91296548       6.30065902  T        0
O       12.05256717      18.52993421       2.73658755  T        0
O       18.52918680      12.02946113       2.77845294  T        0
O       14.91980511      12.06500793       6.31355359  T        0
O        6.08949960       9.70325870      -0.06620944  T        0
O        9.56605030       6.18972508      -0.18895941  T        0
O       10.46317111      16.48392646       1.97534231  T        0
O       13.98688085      10.45939289       4.39572688  T        0
O       20.01803589      14.10829908       1.91166768  T        0
O       16.57628387      10.47515576       1.83026080  T        0
O       10.56592113      14.11920402       4.24974364  T        0
O       14.11910589      20.04997397       1.92081918  T        0
O        7.80606971      10.36671736       1.76432481  T        0
O       14.12591284      14.12436576       7.85171220  T        0
O       10.28763908       7.78992580       1.73576150  T        0
Al      10.77922409      15.23698261       0.84606014  T        0
Si      12.96101100      10.75631117       3.17434144  T        0
Si      19.65663196      15.37071785       0.92867300  T        0
Al      15.18676528      10.74226747       0.87343232  T        0
Si      10.86118079      13.05201517       3.05762656  T        0
Si      15.37057392      19.67657080       0.93353858  T        0
Si       9.07035430      11.31071032       1.32107382  T        0
Si      10.85949180      15.35373770       5.29978429  T        0
Si      13.13576688      19.65577881       3.18323426  T        0
Si      17.49066206      10.80512617       3.10576143  T        0
Si      15.37437453      13.13109344       7.46600851  T        0
Si       9.04345170       6.85293454       1.22166030  T        0
Si      11.26438351       9.04618811       1.36396808  T        0
Si      15.29573954      10.82590550       5.32008766  T        0
Si      19.65184524      13.12974639       3.18876141  T        0
Si      10.82377618      17.51752003       3.13665448  T        0
Si      13.13206525      15.37212755       7.45931961  T        0
Si       6.82903268       9.13617251       1.28955681  T        0
O       14.79004825      12.20684082      -2.65025143  T        0
O       14.81899537       8.84294978      -6.46431340  T        0
O        5.90878536      14.74181941      -3.43183240  T        0
O       15.64484748      18.35557270      -2.76981899  T        0
O       12.17801745      14.89423252      -2.78185761  T        0
O        8.80852353      14.67726304      -6.62009183  T        0
O       14.78754081       6.05429203      -3.48696544  T        0
O       18.29148723      15.67752909      -2.74763486  T        0
O       13.91805221      14.11657853      -0.93601486  T        0
O       13.15121121       7.90052980      -4.62323762  T        0
O        7.84372413      13.27092941      -4.60674919  T        0
O       16.50588999      16.56140373      -0.91577637  T        0
O       12.95536592      10.33762410      -1.97852563  T        0
O       10.32562084      13.07958872      -1.98933555  T        0
O       12.08296573      15.71167635      -0.19427715  T        0
O       15.22725634      12.31837949       0.02163781  T        0
O       12.27549788       9.84103036      -6.30290043  T        0
O       12.02370524       5.97308711      -3.46704016  T        0
O        6.04920702      11.98065206      -3.39514722  T        0
O        9.77728856      12.17269383      -6.17808763  T        0
O       18.48752641      14.95483287      -0.14363776  T        0
O       14.92733932      18.53571378      -0.15664631  T        0
O       12.30471297      12.35518100      -3.57480905  T        0
O       16.53580105      14.00954013      -1.69954154  T        0
O       13.98501164      10.44924371      -4.46380572  T        0
O        7.71296452      13.61889347      -1.92874357  T        0
O       13.98610644      16.63853113      -1.83303575  T        0
O       10.40734634      14.01996778      -4.51095660  T        0
O       13.53576874       7.72936067      -1.95387618  T        0
Si      15.20841515      13.13586144      -1.38848272  T        0
Si      13.55253140       9.23138835      -5.47482635  T        0
Si       6.87062292      13.40234456      -3.30752814  T        0
Si      15.27693862      17.53686622      -1.39127379  T        0
Si      12.97982032      15.42172992      -1.46798676  T        0
Si       9.18714330      13.53483395      -5.48612579  T        0
Si      13.37489541       6.90249566      -3.35207564  T        0
Si      17.47393653      15.32281299      -1.35998930  T        0
Si      13.35730858       9.05665681      -1.00963641  T        0
Si      11.28495468      13.57732367      -3.21320867  T        0
Si       9.04209844      13.39645465      -0.99445562  T        0
Si      13.49102209      11.31671956      -3.17532307  T        0
H       11.67124922      16.48560174       8.95913012  F        0
H        9.33839640      18.82463975       4.28720704  F        0
H       16.48559112       9.33840607       6.62628668  F        0
H       21.15750258      11.67126816       4.28721909  F        0
H       21.15749781      16.48550533      -0.52720743  F        0
H        5.57209183       7.91116076       2.85997479  F        0
H       16.48560162      11.67124930       8.95913012  F        0
H       18.82463962       9.33839646       4.28720704  F        0
H        9.33840600      16.48559124       6.62628668  F        0
H       11.67126808      21.15750273       4.28721909  F        0
H       16.48550522      21.15749796      -0.52720744  F        0
H        7.91116071       5.57209184       2.85997479  F        0
H       19.36967537      17.02670403       2.55489743  F        0
H       17.02670393      19.36967551       2.55489742  F        0
H       14.75328390      19.36965561       4.82834093  F        0
H       14.75330456      17.02669971       7.17128892  F        0
H       19.36965547      14.75328399       4.82834093  F        0
H       17.02669959      14.75330466       7.17128892  F        0
H        5.29994992       9.34387197      -0.50274702  F        0
H        9.34387190       5.29994996      -0.50274702  F        0
H       15.05832753       7.91114247      -6.62654864  F        0
H        5.57209393      15.05833723      -4.28746901  F        0
H       16.48557283      18.82464187      -2.86023677  F        0
H        7.91114242      15.05832763      -6.62654864  F        0
H       15.05833712       5.57209397      -4.28746900  F        0
H       18.82464171      16.48557294      -2.86023676  F        0
H       11.69567657       9.34382508      -6.89874716  F        0
H       11.69569900       5.29990410      -2.85482259  F        0
H        5.29990407      11.69569909      -2.85482259  F        0
H        9.34382502      11.69567665      -6.89874716  F        0
Fe      13.37271718      13.13039004       0.87999359  T        1
