136
Lattice="20.102 0.0 0.0 0.0 19.731 0.0 0.0 0.0 13.253" Properties=species:S:1:pos:R:3:move_mask:L:1:tags:I:1 i=77 E=-3472.0240129048 regions="_JSON [\"Active\"]" n_terminators=36 energy=-893.3866940643204 pbc="F F F"
O        9.95721908      18.80485532       4.05221506  T        0
O       10.03491748      11.12150200       3.99071310  T        0
O        2.17493436      11.21968559       4.00595461  T        0
O       12.13967937      18.45346347       2.54671963  T        0
O       12.45396056      11.25037462       2.85050844  T        0
O       11.87623803      17.23600947       4.93180635  T        0
O       11.87208697      12.73785788       4.98866757  T        0
O        8.29266860       9.95659808       8.76208601  T        0
O       12.42252242      19.90635297       4.68606727  T        0
O       12.24619102      10.25256939       5.44451684  T        0
O        3.73554468      10.66741242       6.11417490  T        0
O       13.57488385      10.54883297       0.45684990  T        0
O        3.49232340       8.86828396       4.13231825  T        0
O       13.25659605       8.88987803       2.60971287  T        0
O        4.85438084      11.11997608       3.74288676  T        0
O        4.95837852      18.46017241       4.26676974  T        0
O       15.10862588      10.89213120       2.68663208  T        0
O        3.84251566      12.40498197       8.02367743  T        0
O        5.78960536       7.32769254       1.56150108  T        0
O        5.94343463      10.68316969       7.66973010  T        0
O        3.96805204       8.70231488       0.05506839  T        0
O        5.86662410      19.20977451       7.58918830  T        0
O        3.65166480       9.77057488       8.66558839  T        0
O        5.84175659       9.98168210       1.54173259  T        0
O       16.41523721       9.67981213       4.72955375  T        0
O        7.90272847      12.45051422       8.10548198  T        0
O        7.69505852      17.28559916       8.09977621  T        0
O        8.09322403      10.66161859       6.12505059  T        0
O        7.98846490      18.64370464       5.90760482  T        0
O        7.49062495      11.22565357       3.29691129  T        0
O        7.40887101      18.67333996       3.30798808  T        0
O       17.65930778      11.50364287       3.25286584  T        0
O        8.60002096       8.61160312       4.14955437  T        0
O       11.67952745      10.56688455       9.74195466  T        0
O       11.92362783      19.04598372       9.61990599  T        0
O        5.86665854      12.62238664       1.75311913  T        0
O        5.57878579      17.34330584       1.89027370  T        0
O       16.14903590      17.04744417       4.55820039  T        0
O       15.78026007      12.36473479       4.83372656  T        0
O        9.97897091      17.14687986       9.45372669  T        0
O        9.87997167      12.65886637       9.87558407  T        0
O       10.22654148       6.46949138       3.64917887  T        0
O        7.70380839      16.75279424      10.71792786  T        0
O        2.38117949       6.44426945       3.80835001  T        0
O        7.36256334      13.39802672      10.58185930  T        0
O        8.65738623      14.90437025       8.92598200  T        0
O        3.45834163       7.03516305       6.12286919  T        0
O       16.75747968      12.69450456       7.30822467  T        0
O       16.59367467      17.15268142       7.20920914  T        0
O        5.10378936       6.74246005       4.04856142  T        0
O        5.44065028      14.98204187       0.68944387  T        0
O       16.01767962      14.83251539       5.87529123  T        0
O        3.75337459      16.89724488      -0.10301484  T        0
O        3.85981821      12.86632885      -0.06925900  T        0
O       14.17714567      13.16164079       6.81735910  T        0
O       14.11684321      16.69079789       6.33589279  T        0
O       12.02234782      15.00278172       6.18242020  T        0
O        8.71081071       6.47973299       5.81342338  T        0
O       11.59616109      12.56643434       7.88096180  T        0
O       11.87402071      17.31785524       7.59336799  T        0
O        7.62142300       6.31132450       3.31674442  T        0
O       12.38159885      13.00725849      10.47458304  T        0
O       12.37271242      16.44171816      10.12534688  T        0
O        5.68375186       4.81525897       2.22537133  T        0
Si      11.57529672      18.62774527       4.08147694  T        0
Si      11.65667873      11.26314523       4.28726444  T        0
Si       3.55472798      10.46104996       4.50897202  T        0
Si      13.66247210      10.41374010       2.09824600  T        0
Si       4.32422787      10.87840468       7.63573726  T        0
Si       5.50432210       8.64428104       0.65779585  T        0
Si       7.56860259      10.92111106       7.62308459  T        0
Si       7.45497365      18.77222728       7.45013934  T        0
Al       8.52446073      10.27227988       4.51163814  T        0
Si       8.42422721      19.24476081       4.46457916  T        0
Si       5.98358307      11.21093652       2.58377500  T        0
Si       5.82611092      18.63253487       2.87399581  T        0
Si      16.20915789      11.09711187       3.90387217  T        0
Si       8.49339230      16.49350355       9.29540993  T        0
Si       8.48067331      13.32892949       9.37019892  T        0
Si       3.62098191       7.27182565       4.50406956  T        0
Si       5.27855006      16.60161149       0.46918240  T        0
Si       5.36662244      13.38696600       0.37864807  T        0
Si      15.66301513      13.26161390       6.20800673  T        0
Si      15.71015612      16.42656513       6.01634669  T        0
Al      12.48045273      13.26834342       6.60523343  T        0
Si      12.50362808      16.57513726       6.30509765  T        0
Si       8.78520906       7.01518967       4.24054737  T        0
Si      11.39537568      12.17422537       9.43768622  T        0
Si      11.53603761      17.49801478       9.19696851  T        0
Si       6.07560110       6.30335762       2.79725556  T        0
O        8.43862323      19.90251610       8.15220877  T        0
O        5.34765034      20.04182014       2.16093120  T        0
O        8.33653527      20.88064438       4.62872452  T        0
O        6.53190601       8.52355466      -0.61753907  T        0
O        6.36440866      17.26082605      -0.57374371  T        0
O        6.42415865      13.07108385      -0.84085271  T        0
H        1.81269882      11.30123319       3.09859993  F        0
H       13.03074803      18.74401529       2.26762503  F        0
H        8.32625906       8.98649408       8.81306681  F        0
H       12.34310542      20.30287261       5.56688324  F        0
H       12.34314048       9.29328245       5.56696388  F        0
H       14.08297195      10.81847671      -0.34490677  F        0
H       13.65226955       8.06005012       2.32001841  F        0
H        4.05829635      18.79668859       4.41071282  F        0
H        4.03182275      12.92715973       8.82439874  F        0
H        3.12887899       8.92429365       0.49683426  F        0
H        5.06295559      18.75104696       7.26028496  F        0
H        4.11249823       9.08086468       9.18193973  F        0
H       15.77833301       9.20254623       5.28891552  F        0
H       18.17502404      10.93300163       2.66186473  F        0
H       11.52310774       9.76092419       9.21110646  F        0
H       11.52310955      19.83515307       9.21116341  F        0
H       15.87290964      17.87210703       4.12309272  F        0
H       11.09748793       6.69447189       4.02620164  F        0
H        6.74596320      16.92620537      10.74076342  F        0
H        2.04924741       6.48050321       2.89306910  F        0
H        6.74596321      12.66985099      10.74076342  F        0
H        4.18307623       6.74908279       6.70466819  F        0
H       16.41758072      12.40218664       8.16986141  F        0
H       16.41758072      17.19386972       8.16986141  F        0
H        2.98936131      16.34896307       0.14601228  F        0
H        2.98936131      13.24709329       0.14601228  F        0
H        8.00892554       6.80873427       6.39739775  F        0
H       13.32025657      13.20375310      10.31771692  F        0
H       13.32025658      16.39230324      10.31771692  F        0
H        5.99116592       4.00312854       2.66051272  F        0
H        8.32625906      20.60985804       8.81306681  F        0
H        5.72719026      20.39380587       1.33756863  F        0
H        8.66651872      21.47399316       3.93953912  F        0
H        6.58577874       9.14969547      -1.35751146  F        0
H        6.36643797      17.19386972      -1.54340896  F        0
H        6.36643797      12.40218664      -1.54340896  F        0
Fe       8.88565511      12.66556443       3.06277542  T        0
Fe      11.00926839      14.58680519       4.47613737  T        1
O        9.17946883      14.62136839       3.58114220  T        2
O       10.24117300      14.09866311       2.62703164  T        3
