133
Lattice="20.102 0.0 0.0 0.0 19.731 0.0 0.0 0.0 13.253" Properties=species:S:1:pos:R:3:move_mask:L:1:tags:I:1 i=77 E=-3472.0240129048 regions="_JSON [\"Active\"]" n_terminators=32 energy=-897.4622026251503 pbc="F F F"
O       10.03840315       8.63146627       9.31098193  T        0
O        9.95118089      18.86843015       4.00031098  T        0
O       10.03082315      10.64122075       3.73850246  T        0
O        7.64974498       8.42434271      10.43106144  T        0
O       12.09700778      18.81465462       2.52666970  T        0
O       12.46397236      11.41840037       2.81673938  T        0
O        8.28514629       6.90071326       8.30504098  T        0
O       11.97137060      17.30428402       4.76209057  T        0
O       11.54552644      12.36927640       5.08299026  T        0
O        7.83329503       9.53236306       8.01541773  T        0
O       12.21522988      19.93902201       4.96323348  T        0
O       12.23720836       9.75683366       4.92891433  T        0
O        6.63809941       8.80994023      12.84642041  T        0
O        6.16373815      18.93982731      10.78607102  T        0
O        6.26986046      10.62473896      10.78426080  T        0
O       16.85095509      10.66637694       9.27855066  T        0
O       16.98886473      18.94188619       9.19886400  T        0
O        4.95215837       8.30653363      10.84456837  T        0
O       14.25238915      17.09334517      12.06673722  T        0
O       14.38258082      12.52067397      12.10497553  T        0
O        5.84333254      10.82223291       6.68153114  T        0
O        5.82290633      19.34321868       7.36322204  T        0
O       14.24905658       8.86272823       6.55256058  T        0
O        7.82662443      12.19293930       7.92863594  T        0
O        7.63810699      17.32821837       7.76698609  T        0
O       12.65349105       7.13878621       5.26580081  T        0
O        8.27001618      10.82087856       5.72619000  T        0
O        7.91491591      18.95134945       5.70494809  T        0
O       11.80464626       8.64387909       7.34442775  T        0
O        7.52584279      11.35770212       3.18094478  T        0
O        7.52354797      18.23174424       3.15401265  T        0
O       12.58596763       8.32713376       9.96389795  T        0
O        8.01667808       8.84126887       3.92849368  T        0
O       11.69605313      10.68882026       9.00504871  T        0
O       11.38799828      19.07571248       9.38212140  T        0
O       16.30066584      17.10941590       4.55861616  T        0
O       16.19973480      12.51082890       4.59845557  T        0
O       10.15792735      16.66447609       8.93185404  T        0
O        9.82417496      12.50893860       9.71035644  T        0
O        7.43918360      16.60232937      10.50242013  T        0
O        7.26463252      13.04867697      10.37950047  T        0
O       17.59944619      13.22510474       9.49972999  T        0
O       17.81980745      16.45498888       9.42109407  T        0
O        8.62301366      14.62694958       8.66413203  T        0
O        6.21382247      17.34240598      12.80325504  T        0
O        6.25321254      12.28518909      12.78215787  T        0
O       16.41286777      12.48399283       7.27124359  T        0
O       16.45780088      17.10517781       7.23758974  T        0
O        4.71386401      16.63099615      10.73864388  T        0
O        4.58760126      12.74912175      10.75892507  T        0
O       14.96088973      12.58954308       9.47643932  T        0
O       15.15792423      16.98457138       9.52852673  T        0
O       16.18729031      14.78917808       5.89888589  T        0
O       14.07456859      13.17542820       6.21370236  T        0
O       14.15457056      16.49685673       6.02927823  T        0
O       11.86174135      15.10569960       6.29116937  T        0
O       11.51009911      13.10608960       7.81465731  T        0
O       12.12863307      17.48076235       7.41123787  T        0
O       12.43027118      12.87993405      10.28882154  T        0
O       12.57626457      16.74879324       9.95614273  T        0
O       14.18681465      14.80752230      10.79885700  T        0
Si       8.45022215       8.38127343       9.00293667  T        0
Si      11.56111018      18.73309978       4.07721203  T        0
Si      11.57129029      11.05514014       4.15642700  T        0
Si       6.37261458       9.04741505      11.24566686  T        0
Si       7.43592223      10.82717610       7.11477963  T        0
Si       7.39756061      18.83931467       7.24765577  T        0
Si      12.71641261       8.62056448       5.99147462  T        0
Si       8.46699162      10.41859549       4.14709951  T        0
Si       8.36440383      19.20751270       4.17209887  T        0
Si      11.55918374       9.05986696       8.90659874  T        0
Al       8.34356300      16.40328333       9.05349236  T        0
Si       8.36581179      13.07320458       9.18494414  T        0
Si       6.15481458      17.34961316      11.15708762  T        0
Si       6.08973008      12.19830701      11.15514782  T        0
Si      16.45629648      12.22335025       8.87996194  T        0
Si      16.59424763      17.37855680       8.84349724  T        0
Si      15.67201154      13.22045623       5.99320895  T        0
Si      15.78191519      16.36484655       5.93818718  T        0
Al      12.37401412      13.34175585       6.23171944  T        0
Si      12.55231216      16.59731508       6.10382773  T        0
Si      11.37553436      12.25381422       9.21983080  T        0
Si      11.56541320      17.53191383       8.94749957  T        0
Si      14.00413200      13.19342314      10.65024199  T        0
Si      14.05805754      16.41568698      10.58075642  T        0
O       10.06112424      21.37987047       9.34357668  T        0
O        7.66872407      21.07134865      10.47896960  T        0
O        7.84405903      22.62503594       8.39505588  T        0
O        8.25788112      19.93586864       8.10169307  T        0
O        6.63564667      20.75576076      12.84554733  T        0
O        4.95918022      21.30607029      10.83757250  T        0
O       14.26036399      20.76796168       6.56903317  T        0
O       12.55287888      22.53427482       5.42478978  T        0
O       11.83593539      20.86781384       7.44089466  T        0
O       12.60655846      21.40080425      10.00826232  T        0
O        8.05231806      20.76201193       3.71200872  T        0
Si       8.44523474      21.24660769       9.06083666  T        0
Si       6.34017942      20.50259594      11.25075246  T        0
Si      12.70450692      21.02409808       6.07732494  T        0
Si      11.49509736      20.68203296       9.03188158  T        0
H       13.03074803      18.74401529       2.26762503  F        0
H       13.03074804      10.85204106       2.26762503  F        0
H        7.84356088       6.72376138       7.45668423  F        0
H        6.01931354       8.91222751      13.59787507  F        0
H       16.64303307       9.81912404       8.84117322  F        0
H       16.64304187      19.77694965       8.84122497  F        0
H        4.52133035       8.52501985      10.00226603  F        0
H       14.40563884      18.04556895      12.19637069  F        0
H       14.40563885      11.55048737      12.19637067  F        0
H        5.06295559      10.84500939       7.26028495  F        0
H        5.06295559      18.75104696       7.26028496  F        0
H       15.03932990       8.88569483       5.99268334  F        0
H       11.89104871       6.82542533       4.74838322  F        0
H        6.55301950      11.30937632       3.13509397  F        0
H        6.55301950      18.28668004       3.13509397  F        0
H       13.54926599       8.42132791      10.11787432  F        0
H        8.66651872       8.12235896       3.93953912  F        0
H       15.87290964      17.87210703       4.12309272  F        0
H       15.87290964      11.72394929       4.12309273  F        0
H       18.05303808      13.25020103      10.35989921  F        0
H       18.05303809      16.34585533      10.35989921  F        0
H        5.86807409      16.61444052      13.33116226  F        0
H        5.86807409      12.98161584      13.33116226  F        0
H        4.26454119      16.60174699       9.87579966  F        0
H        4.26454119      12.99430937       9.87579967  F        0
H        7.84356087      22.87259074       7.45668424  F        0
H        6.01931354      20.68412461      13.59787507  F        0
H        4.52133035      21.07133226      10.00226603  F        0
H       15.03932989      20.71065726       5.99268335  F        0
H       11.89104871      22.77092679       4.74838323  F        0
H       13.54926599      21.17502420      10.11787433  F        0
H        8.66651872      21.47399316       3.93953912  F        0
Fe      10.52290755      14.90965945       7.86190007  T        1
