142
Lattice="20.102 0.0 0.0 0.0 19.731 0.0 0.0 0.0 13.253" Properties=species:S:1:pos:R:3:move_mask:L:1:tags:I:1 i=77 E=-3472.0240129048 regions="_JSON [\"Active\"]" n_terminators=30 energy=-979.433508523127 pbc="F F F"
O       10.12803044       8.91943159       9.48146652  T        0
O       10.25924046      10.95330931       4.48007083  T        0
O        2.48206030      10.91557373       3.44183760  T        0
O        7.63439023       8.76259781      10.47876042  T        0
O       12.20768108      11.04452248       2.74729173  T        0
O        8.21897686       2.92046896       8.77409785  T        0
O        1.71974948      12.35966534       1.30639729  T        0
O        8.27386225       7.48097848       8.23933792  T        0
O       12.43501743      12.55329915       4.94686836  T        0
O        1.64027605       9.72554081       1.17631758  T        0
O        8.13912734      10.15795821       8.28802841  T        0
O       12.59431988       9.85856555       5.14131800  T        0
O        3.66609720      11.16750387       5.84111491  T        0
O        6.27470963       8.59113625      12.71323728  T        0
O        4.23985917       9.06321820       4.34633598  T        0
O        6.61063336      11.01136154      11.62781102  T        0
O        3.42550801       0.68491021       5.04750460  T        0
O        5.10360166      11.38818418       3.57449200  T        0
O        5.00198121       9.27830056      10.39284084  T        0
O        6.43300059       1.98275918       1.60950595  T        0
O        3.66443270      12.64768100       7.97134537  T        0
O        6.14068203       6.97258074       1.23568809  T        0
O        5.77724875      11.03935903       7.55109260  T        0
O        3.95194220       8.43779037       0.73881159  T        0
O       14.37623794       8.48811078       6.57676478  T        0
O        3.51082978       9.96955132       8.26948760  T        0
O        6.02165899       9.54932138       1.93239460  T        0
O        2.61338914       2.41422723       1.29956323  T        0
O        7.90573377      12.69134450       7.60388494  T        0
O        1.65320610       7.09052853       0.82949943  T        0
O       12.38220545       7.19324399       5.33349971  T        0
O       12.48661854       2.53574440       5.50700786  T        0
O        7.61610157      10.75661847       5.71488171  T        0
O       11.92571829       8.64402704       7.49723116  T        0
O        7.70547286      11.29195666       2.96217942  T        0
O        2.52481135       8.23192806      10.08032305  T        0
O       12.60815010       8.66908952      10.15536899  T        0
O        8.23264454       8.75908513       3.99661463  T        0
O        8.50222783       0.54584521       4.76061742  T        0
O       11.82536643      10.91796374       8.75176719  T        0
O        4.09070149       2.76198463       8.79892207  T        0
O        5.88916200      12.16252924       1.14729406  T        0
O        4.45452901       7.47511924       8.51927107  T        0
O       -0.23818031       6.45695378       2.66320316  T        0
O        0.15459870       2.36273819       2.27849147  T        0
O       10.20050667       2.52183232       4.02142420  T        0
O       10.35631110       7.02173776       3.65777192  T        0
O        2.36312657       6.95385929       3.37103706  T        0
O        2.28564410       2.88087723       3.89284710  T        0
O       12.41708748       2.74038433       2.75624865  T        0
O       12.81741500       6.30768335       2.78951770  T        0
O        1.57398830       4.71359596       2.10053401  T        0
O       11.60819775       4.75851451       4.45292621  T        0
O        3.61935721       6.86524831       6.01558549  T        0
O        3.69417548       3.03135452       6.11992429  T        0
O        5.32838465       6.83314015       3.71709562  T        0
O        4.92928064       2.54778824       3.78237101  T        0
O        5.79662790      14.79386854       0.93941842  T        0
O        4.65005559       5.01829940       7.64166543  T        0
O        6.20080225       6.99470560       6.60214792  T        0
O        3.81670795      13.24637642      -0.11908015  T        0
O        6.16259148       2.93276230       7.01862991  T        0
O        1.79735583      14.88505731       0.62009503  T        0
O        7.81806495       5.02302791       7.38648895  T        0
O        8.69473301       6.81505570       5.70001296  T        0
O        8.63917423       2.76271416       6.14285722  T        0
O        7.84760358       6.28508256       3.19003700  T        0
O        7.59487841       2.90811222       3.72049997  T        0
O        5.98988330       4.54715708       2.39352157  T        0
Si       1.45057784      11.00410663       2.17676292  T        0
Si       8.54076395       8.82296864       9.12248606  T        0
Si      11.85815506      11.11501801       4.36179754  T        0
Si       3.82854694      10.66349978       4.30581992  T        0
Si       6.36462395       9.40802050      11.29252082  T        0
Si       4.16733912      11.19082649       7.40155288  T        0
Si       5.57339065       8.43540702       0.77557207  T        0
Si       7.37968339      11.16153625       7.25405951  T        0
Si       2.36318624       8.49113094       0.38574922  T        0
Si      12.79334551       8.57161851       6.11785351  T        0
Al       8.60790808      10.56209228       4.28178409  T        0
Si      11.64176221       9.28772116       8.97551106  T        0
Si       6.22221207      11.17097338       2.37899688  T        0
Si       3.87820141       8.75903797       9.32059179  T        0
Si       1.35977640       6.32433004       2.27365506  T        0
Si       1.61345866       3.11810641       2.41570168  T        0
Si      11.70319549       3.14209328       4.18562384  T        0
Si      11.79872924       6.33216937       4.07877009  T        0
Al       3.71328024       7.31520866       4.35683264  T        0
Si       3.58981369       2.28238910       4.67988761  T        0
Si       4.68405749       6.57873180       7.18209732  T        0
Si       5.41702469      13.38786605       0.17914546  T        0
Si       4.64049190       3.41273593       7.39662286  T        0
Si       7.74229309       6.58503797       7.00196531  T        0
Si       2.20201859      13.37212234       0.11516915  T        0
Si       7.69965567       3.41477093       7.30216345  T        0
Si       8.81934087       7.20874672       4.12848857  T        0
Si       8.73193984       2.17216837       4.62749507  T        0
Si       6.31743865       6.11488829       2.62539005  T        0
Si       6.20725864       2.99035183       2.88468984  T        0
O        7.99937219       8.49344880      -2.58738620  T        0
O        6.19590846       8.79028757      -0.66658627  T        0
O        6.69829659      10.79142017      -2.26021242  T        0
O        5.48814724       8.56166712      -3.31036372  T        0
O        2.29733370       8.73947961      -1.24701722  T        0
O        7.06348382      13.01815633      -3.78260106  T        0
O        6.21713242      13.23791845      -1.24171317  T        0
O        4.66261511      12.14045115      -3.16418448  T        0
O        1.39496949      13.09507977      -1.29842041  T        0
Si       6.54746339       9.16479917      -2.21484116  T        0
Si       6.19632547      12.29406898      -2.59044291  T        0
O       -0.02208356      10.97158810       2.89826059  T        0
H       13.03074804      10.85204106       2.26762503  F        0
H        8.32487049       1.96348467       8.80281458  F        0
H       12.25872463      13.00694285       5.79628406  F        0
H        6.01931354       8.91222751      13.59787507  F        0
H        6.45001595      11.67065412      10.93294989  F        0
H        3.45924363      -0.04624542       4.41174334  F        0
H        5.69664664       1.68513527       1.05659762  F        0
H        4.03182275      12.92715973       8.82439874  F        0
H       15.03932990       8.88569483       5.99268334  F        0
H        2.35337064       1.61243811       0.82192755  F        0
H        8.21123678      12.90527891       8.50458507  F        0
H       12.40451338       1.61243810       5.80455660  F        0
H        1.92726146       8.79770260      10.59110356  F        0
H       13.54926599       8.42132791      10.11787432  F        0
H        8.57917594      -0.10444883       4.04180490  F        0
H       11.43576677      11.60834527       9.31342917  F        0
H        4.22937586       1.85859719       9.12987557  F        0
H       -0.70903753       7.30425969       2.68512250  F        0
H       -0.70903753       2.56109242       2.68512249  F        0
H       13.35632229       2.80449888       2.51220488  F        0
H       13.35632228       7.06085325       2.51220488  F        0
H        5.67587981      15.71242072       0.63388066  F        0
H        2.12599875      15.71306863       0.22631132  F        0
H        8.23844393       8.42947104      -3.52791591  F        0
H        4.52133035       8.52501985      -3.25073397  F        0
H        1.54448592       9.14594745      -1.70877228  F        0
H        8.00189534      13.25020102      -3.73344676  F        0
H        4.26454119      12.99430937      -3.37720033  F        0
H        1.43221285      12.31405055      -1.87911103  F        0
H       -0.90389482      10.88061926       2.50078840  F        0
Fe       6.22282354       8.75231077       4.13742797  T        1
