142
Lattice="20.102 0.0 0.0 0.0 19.731 0.0 0.0 0.0 13.253" Properties=species:S:1:pos:R:3:move_mask:L:1:tags:I:1 i=77 E=-3472.0240129048 regions="_JSON [\"Active\"]" n_terminators=28 energy=-988.8965441338438 pbc="F F F"
O       10.08564707       8.63877624       9.41750341  T        0
O       10.13532107      11.04352142       4.34368612  T        0
O        2.41719587      11.28674341       3.75205736  T        0
O        7.61890702       8.67850445      10.42225692  T        0
O       12.14352198      11.00026004       2.63841697  T        0
O        8.48473362       2.82388017       8.39681903  T        0
O        1.57092478      12.60021773       1.45948394  T        0
O        8.19149475       7.15630586       8.28132500  T        0
O       12.29921195      12.51606364       4.87542506  T        0
O        2.06214820       9.89696606       1.63260861  T        0
O        8.13947279       9.81991188       8.08072654  T        0
O       12.44730710       9.85635497       5.03949582  T        0
O        3.45452781      11.16759443       6.18368937  T        0
O        6.48934236       8.74258968      12.75913306  T        0
O        3.95508216       9.09095590       4.63190782  T        0
O        6.24575112      10.89771608      11.09308052  T        0
O        3.24891481       0.78688715       3.96063867  T        0
O        5.10566339      11.25917299       4.09479423  T        0
O        4.96001308       8.70619358      10.49932619  T        0
O        6.00791745       2.60379692       1.12944758  T        0
O        3.80851325      12.49552531       8.37957206  T        0
O        6.10702931       7.31418213       1.22740001  T        0
O        5.72847016      10.80390849       7.56805354  T        0
O        3.95241271       8.57321004       0.30067636  T        0
O       14.31070407       8.73165385       6.61328425  T        0
O        3.51562452       9.82200236       8.51410381  T        0
O        5.62744368       9.82234130       1.98939599  T        0
O        1.94632593       2.49790198       0.89453177  T        0
O        7.85936471      12.40703248       7.62650593  T        0
O        1.59237473       7.37976756       0.80143860  T        0
O       12.45130637       7.21155016       5.36574116  T        0
O       12.44420663       2.53923167       5.50290614  T        0
O        7.44364597      10.52164609       5.63623978  T        0
O       11.85216521       8.79406175       7.44727920  T        0
O        7.49715195      11.46272644       2.98000588  T        0
O        2.38212583       8.06634068      10.15365407  T        0
O       12.57928876       8.38026783      10.05583229  T        0
O        8.21412629       8.85473834       3.83110627  T        0
O        8.20916372       0.72213904       3.69900675  T        0
O       11.65617575      10.78601481       9.23246657  T        0
O        3.75619560       2.29713354       8.40531691  T        0
O        5.15306883      12.50035336       1.84877097  T        0
O        4.14263993       7.18350116       8.47333052  T        0
O        0.10843613       6.93193757       3.04674303  T        0
O       10.06414707      12.95572118       9.02449018  T        0
O        0.18736664       2.71699275       3.02227291  T        0
O       10.19744483       2.56013621       3.95939720  T        0
O       10.35064436       7.09184635       3.78224176  T        0
O        2.73326934       6.79039946       3.10655152  T        0
O        7.76255383      12.93267137      10.29170494  T        0
O        2.67036748       3.24935487       3.43074296  T        0
O       12.41614280       2.79473286       2.74913256  T        0
O       12.76800451       6.34781748       2.79780246  T        0
O        8.19797872      14.86108220       8.41761852  T        0
O        1.34523148       4.88437700       1.80226238  T        0
O       11.59951733       4.78987951       4.48066888  T        0
O        3.56171605       6.60293537       5.89069483  T        0
O        6.63942510      12.99160558      12.73134828  T        0
O        3.73635369       2.75043222       5.84818806  T        0
O        5.51177466       7.20664917       3.81335391  T        0
O        5.15681403      13.29525642      10.54850857  T        0
O        5.22585631       2.61955886       3.70827679  T        0
O        4.50369236       4.74360445       7.52796330  T        0
O        6.05186949       6.84692978       6.72333060  T        0
O        6.09878834       2.69443844       7.15175573  T        0
O       14.22656135      13.91715658       6.17776851  T        0
O        7.76328133       4.83566673       6.98205940  T        0
O       11.80762203      14.89416189       6.02244482  T        0
O        8.45202415       6.98685927       5.63629061  T        0
O        8.28336533       2.52254733       5.73025295  T        0
O       12.25184477      12.65389386       7.50458178  T        0
O        7.90685772       6.39567678       3.03872016  T        0
O        2.58210517      12.87581768      10.73213818  T        0
O        7.72299526       3.20219018       3.17962133  T        0
O       12.36364710      13.23274753      10.15533530  T        0
O        3.44231003      14.97759631       9.30719972  T        0
O        5.84273862       4.90330759       2.38736440  T        0
Si       1.49945663      11.23130449       2.37749803  T        0
Si       8.50333500       8.56698144       9.05691383  T        0
Si      11.74066535      11.10744843       4.23718100  T        0
Si       3.64477922      10.70310589       4.63665284  T        0
Si       6.31402065       9.26866925      11.21245628  T        0
Si       4.12662037      11.07230289       7.66771391  T        0
Si       5.51283678       8.76476822       0.74015425  T        0
Si       7.31316419      10.92115568       7.22545336  T        0
Si       2.33572762       8.80242053       0.46738328  T        0
Si      12.74391838       8.65332060       6.09525171  T        0
Al       8.49529359      10.60125640       4.14746438  T        0
Si      11.57742460       9.16728303       9.02103243  T        0
Si       5.92741906      11.30500806       2.65887246  T        0
Si       3.78215946       8.45999546       9.39732248  T        0
Si       1.44721503       6.48009264       2.19447305  T        0
Si       8.48446589      13.30411144       8.86274110  T        0
Si       1.52232710       3.32197375       2.26568908  T        0
Si      11.68992191       3.17546268       4.17611732  T        0
Si      11.79204741       6.37219812       4.12123743  T        0
Al       3.77030105       7.33189280       4.34360558  T        0
Si       6.45006813      12.51219082      11.16516303  T        0
Si       3.71767903       2.33769606       4.26967559  T        0
Si       4.52281758       6.33099526       7.14095392  T        0
Si       4.52533144       3.14190813       7.22394743  T        0
Si       7.62551385       6.44477348       6.92934970  T        0
Si       7.64254745       3.22101536       7.04644146  T        0
Si      12.63458186      13.47876512       6.14714277  T        0
Si       8.77011088       7.32699149       4.06751986  T        0
Si       8.61753421       2.25062053       4.15729717  T        0
Si      11.58801217      12.39353281       8.96934203  T        0
Si       6.33060010       6.43988149       2.59836035  T        0
Si       3.76555518      13.42324566       9.72447500  T        0
Si       6.19605556       3.31569921       2.59870062  T        0
O        6.41797419       9.44762417      -0.44854694  T        0
O        1.70441820       9.55062841      -0.85048965  T        0
O       -0.04298134      11.05841710       2.92821782  T        0
H       13.03074804      10.85204106       2.26762503  F        0
H        8.32487049       1.96348467       8.80281458  F        0
H        2.20758188      13.00694286       0.83020008  F        0
H        6.01931354       8.91222751      13.59787507  F        0
H        3.45924363      -0.04624542       4.41174334  F        0
H        5.69664664       1.68513527       1.05659762  F        0
H       15.03932990       8.88569483       5.99268334  F        0
H        2.35337064       1.61243811       0.82192755  F        0
H       12.40451338       1.61243810       5.80455660  F        0
H        1.92726146       8.79770260      10.59110356  F        0
H       13.54926599       8.42132791      10.11787432  F        0
H        8.57917594      -0.10444883       4.04180490  F        0
H        4.22937586       1.85859719       9.12987557  F        0
H        5.53537813      12.95496052       1.09262639  F        0
H       -0.70903753       7.30425969       2.68512250  F        0
H       -0.70903753       2.56109242       2.68512249  F        0
H       13.35632229       2.80449888       2.51220488  F        0
H       13.35632228       7.06085325       2.51220488  F        0
H        8.48702655      15.71151028       8.80063176  F        0
H        5.86807409      12.98161584      13.33116226  F        0
H       14.91456245      13.24933472       6.30897701  F        0
H       12.17714149      15.71306863       6.40017283  F        0
H        1.73086689      12.60761804      10.35624453  F        0
H       13.32025657      13.20375310      10.31771692  F        0
H        4.05997682      15.72757570       9.28699687  F        0
H        6.58577874       9.14969547      -1.35751146  F        0
H        1.54448592       9.14594745      -1.70877228  F        0
H       -0.90389482      10.88061926       2.50078840  F        0
Fe       6.15552722       9.03375837       4.65966561  T        1
