141
Lattice="19.123 0.0 0.0 0.0 14.277 0.0 0.0 0.0 7.5465" Properties=species:S:1:pos:R:3:move_mask:L:1:tags:I:1 i=128 E=-2603.9155142701 regions="_JSON [\"Active\"]" n_terminators=34 energy=-944.0530591006932 pbc="F F F"
O       15.70284966       8.37432533       5.54308986  T        0
O       13.00900608       1.12248163       1.49193814  T        0
O       15.59440568       5.73397446       5.61333783  T        0
O       13.06574128      13.13422334       1.47845847  T        0
O       12.74358232      13.15427391       5.44795255  T        0
O       15.55175190       5.82706551       2.00232955  T        0
O       12.66309217       0.99723314       5.56245265  T        0
O       15.73171150       8.42531546       1.88291614  T        0
O       16.96227756      10.97414709       6.28713364  T        0
O       11.92693716       3.44072780       2.51026904  T        0
O       17.13941606       3.64989892       6.18787111  T        0
O       11.86888061      10.82964361       2.45569308  T        0
O       11.54035692      10.83254325       5.12888606  T        0
O       17.01798382       3.96563665       0.98749179  T        0
O       11.60582042       3.46151586       5.15408707  T        0
O       17.03415782      10.74640377       1.22129732  T        0
O       16.32944084      10.08530644       3.67298478  T        0
O       12.40739708       3.21317904      -0.05446863  T        0
O       16.23213114       3.88005112       3.62445350  T        0
O       12.66492597      11.16844564      -0.11043209  T        0
O       14.17332297      10.86323735       5.52860945  T        0
O       14.47532725       3.36360635       1.68425041  T        0
O       14.22584402       3.10743421       5.69821508  T        0
O       14.43454779      10.82337265       1.84964026  T        0
O       11.48058555       8.50069101       3.78488479  T        0
O       11.53699332       5.78347289       3.74777788  T        0
O       17.32736905      13.14691942      -0.05953992  T        0
O        9.48366621      10.30742867       3.40729921  T        0
O        9.51244480       3.97535988       3.47456441  T        0
O       13.37456705       7.13465737       5.09734505  T        0
O       13.35844532       7.26088229       2.40143799  T        0
O       14.42858106       7.08973523      -0.07165583  T        0
Al      15.73759814      10.18575861       5.38047529  T        0
Si      12.96401723       2.77275725       1.43353498  T        0
Al      15.59566472       3.97891257       5.25810277  T        0
Si      12.97930759      11.49147469       1.45811618  T        0
Si      12.78296109      11.56306148       5.93914876  T        0
Si      15.81399765       4.20540099       2.08692797  T        0
Si      12.72571083       2.59994883       6.00581861  T        0
Si      15.84524603      10.09604655       2.11271054  T        0
Si      11.08652679      10.10784875       3.72286010  T        0
Si      11.12323083       4.17749147       3.74289320  T        0
Si      17.57883981      11.51025288      -0.13994347  T        0
Si      14.75498638       7.09775462       5.97429714  T        0
Si      14.72185581       7.13274323       1.52021888  T        0
Si      12.42270649       7.16347032       3.76147427  T        0
O       21.58584984       3.18736333       9.02230302  T        0
O       21.60109483      11.10331573       9.02837470  T        0
O       20.97783684       1.15898172       7.36594001  T        0
O       20.98700552      13.11887742       7.34170101  T        0
O       19.22223563       3.03969883       7.65195629  T        0
O       19.21445899      11.28217474       7.69745466  T        0
O       24.17039977       7.13198803       7.65573881  T        0
Si      20.86184797       2.78474839       7.58721356  T        0
Si      20.84455538      11.49984133       7.60176541  T        0
O       22.91948786       8.49147115       5.65294369  T        0
O       22.91388567       5.78703164       5.65902742  T        0
O       21.53740712      10.64781552       6.35302050  T        0
O       21.52666751       3.63053081       6.32906181  T        0
O       21.96564359      10.19076569       3.75361790  T        0
O       21.96733765       4.10540199       3.74528718  T        0
O       24.03331305      10.96114062       5.21227969  T        0
O       24.02611990       3.30670338       5.21257921  T        0
O       19.18210305      11.22561276      -0.37227905  T        0
O       25.23020010       7.12827236       5.27565714  T        0
Si      22.63389457      10.07424224       5.26457893  T        0
Si      22.64095500       4.21277950       5.25052053  T        0
Si      23.76407328       7.14090258       6.04602535  T        0
O       12.84798480       1.21090917       9.81531947  T        0
O       12.83899888      13.05566539       9.74689513  T        0
O       15.56154087       5.79419481       9.56950913  T        0
O       15.51877084       8.45514834       9.65507968  T        0
O       11.51963864       3.52281703       9.92373762  T        0
O       11.57590402      10.69723670       9.89805369  T        0
O       16.81258210       3.49947878       8.84009412  T        0
O       16.89240784      10.68379334       8.90843669  T        0
O       16.21580187      10.44157560      11.38187163  T        0
O       12.43436669       2.75833893       7.61352856  T        0
O       16.18396536       3.83875955      11.36054282  T        0
O       12.54053881      11.45678399       7.56706194  T        0
O       14.22222422       3.50069026       9.49204471  T        0
O       14.27357408      10.78549224       9.50142737  T        0
O       17.25288782       1.20243619       7.40064192  T        0
O       17.27107573      13.16838765       7.88080347  T        0
O       13.16646934       7.05877169       9.84216626  T        0
O       14.41361477       7.16621780       7.56704358  T        0
Si      12.78578132       2.75281884       9.21398455  T        0
Si      12.83183178      11.49659610       9.18393356  T        0
Si      15.67337912       4.17231600       9.82556685  T        0
Si      15.71098529      10.08668254       9.85504371  T        0
Si      17.58970310       2.81090211       7.56176453  T        0
Si      17.57555076      11.54238385       7.66509411  T        0
Si      14.67772966       7.13005269       9.18246747  T        0
O       15.50879661       8.47631579      -2.07358631  T        0
O       15.74016059       5.87179296      -2.16682233  T        0
O       12.80438052      13.07903994      -2.07974884  T        0
O       16.76692466      10.79353553      -1.36855260  T        0
O       11.51903935      10.76288418      -2.40100460  T        0
O       16.35056636      10.33063356      -3.86340900  T        0
O       14.23741306      10.80174200      -2.24886536  T        0
O       13.21332224       6.98168057      -2.33734962  T        0
Si      15.69757171      10.08183745      -2.37670102  T        0
Si      12.83891951      11.46723644      -1.71854206  T        0
Si      14.72688903       7.08519715      -1.68929713  T        0
H       13.50938118       0.51971906       2.07492992  F        0
H       13.50958039      13.75682243       2.07498241  F        0
H       13.51084140      13.75504172       5.44776650  F        0
H       13.50975252       0.52161770       5.44778410  F        0
H       17.29134854       3.14797220       0.53999843  F        0
H       12.76076393       2.97683097      -0.93375646  F        0
H       16.56020813      13.76127004      -0.00066979  F        0
H        8.59739021      10.07362933       3.76217937  F        0
H        8.59637561       4.20354031       3.76204115  F        0
H       22.00636260       3.98381786       9.40800429  F        0
H       22.00483182      10.29715766       9.41435165  F        0
H       21.68544240       0.51556882       7.54734209  F        0
H       21.68557806      13.76129914       7.54737584  F        0
H       23.63198861       7.14016697       8.47499567  F        0
H       22.32036723      10.11759060       2.83883070  F        0
H       22.32326696       4.16316078       2.82892343  F        0
H       24.76092223      11.11473374       5.84604825  F        0
H       24.75385446       3.15950316       5.84781029  F        0
H       20.08739461      11.34211663       0.00099186  F        0
H       25.36244212       7.13797332       4.30618001  F        0
H       13.50938118       0.51971906       9.62142992  F        0
H       13.50958039      13.75682243       9.62148241  F        0
H       11.39369377       3.98884644      10.77146895  F        0
H       11.39439525      10.28733182      10.77116771  F        0
H       15.92688062      10.11457984      12.25007275  F        0
H       15.92754156       4.15729643      12.25107281  F        0
H       16.56036088       0.51548555       7.54573787  F        0
H       16.56020813      13.76127004       7.54583021  F        0
H       12.88235039       7.13795337      10.76981689  F        0
H       15.75636517       4.89339805      -2.09021006  F        0
H       13.51084140      13.75504172      -2.09873350  F        0
H       11.39521725      10.28762784      -3.24237523  F        0
H       15.92569105      10.11584057      -4.70878458  F        0
H       12.88191441       7.13773895      -3.23957932  F        0
Fe      17.78811244       5.35404570       5.21240539  T        0
Fe      16.95322020       8.04923053       3.83743515  T        0
O       18.23886255       6.79973812       4.22738446  T        0
