138
Lattice="19.123 0.0 0.0 0.0 14.277 0.0 0.0 0.0 7.5465" Properties=species:S:1:pos:R:3:move_mask:L:1:tags:I:1 i=128 E=-2603.9155142701 regions="_JSON [\"Active\"]" n_terminators=34 energy=-920.7508407690002 pbc="F F F"
O       15.43512925       8.84020538       6.20010043  T        0
O       12.97389214       1.26364811       1.71285246  T        0
O       15.63363377       6.15274411       5.72301771  T        0
O       15.63760502       5.84213709       1.82736214  T        0
O       13.04999672       1.21640188       5.68475986  T        0
O       15.86443044       8.41270923       2.09493151  T        0
O       11.85861961       3.61311259       2.37820007  T        0
O       17.03928915       3.50701389       6.23593973  T        0
O       17.07766697       3.60205585       1.32292633  T        0
O       11.65424925       3.41995721       5.07095105  T        0
O       12.64173725       3.13162484      -0.16889791  T        0
O       16.20251585       4.04910645       3.76374950  T        0
O       14.45192831       3.45866814       1.78363079  T        0
O       14.21162160       3.60756451       5.88605274  T        0
O       11.29719013       8.40307653       3.64262735  T        0
O       17.19791959       1.32617945      -0.08988837  T        0
O       11.64739592       5.81095322       3.85102761  T        0
O        9.53306357       4.09562768       3.47358909  T        0
O       13.36737143       7.45015268       5.12101389  T        0
O       15.52266254      -0.12933718       1.36973977  T        0
O       15.35742409      -0.02314865       6.32593463  T        0
O       13.43290897       7.24972392       2.44407684  T        0
O       14.47729717       7.40535152      -0.02703840  T        0
O       14.55312106      -0.02901721       3.82114250  T        0
Si      12.95337927       2.85155153       1.43200582  T        0
Al      15.64759631       4.45199884       5.46804167  T        0
Si      15.81473541       4.25538105       2.15192555  T        0
Si      12.82027227       2.81800234       6.07054838  T        0
Si      17.65920979       2.90188742      -0.05901495  T        0
Si      11.15002668       4.24341888       3.72499453  T        0
Si      14.65613921       7.38027185       6.14720819  T        0
Al      13.84850531      -0.14994001       2.13007255  T        0
Si      14.00489513      -0.06681460       5.39871341  T        0
Si      14.81831270       7.24153625       1.57516935  T        0
Si      12.45432975       7.23469995       3.77867929  T        0
Si      16.36068713      -0.06850371      -0.07084298  T        0
O       21.22201138       3.54506355       9.02483729  T        0
O       21.35038905       1.17814834       7.66400390  T        0
O       19.21368350       2.81158628       7.55676241  T        0
O       23.66550325      -0.03301519       8.44638978  T        0
Si      20.87407140       2.75453179       7.61960190  T        0
Si      22.31226595      -0.15693093       7.49606592  T        0
O       22.41704407       5.89356608       5.75407408  T        0
O       22.43098019       5.90081087       1.84681614  T        0
O       21.54022730       3.45768067       6.27519975  T        0
O       21.62626157       3.44984428       1.26119615  T        0
O       22.44895807       4.00122997       3.78646328  T        0
O       24.27276218       3.99934981       1.75835117  T        0
O       24.21223940       3.96832213       5.89180096  T        0
O       21.26250898       1.09169408       0.00735147  T        0
O       19.30199192       2.95953053      -0.04218951  T        0
O       22.92089813      -0.30627291       1.59230055  T        0
O       22.91879110      -0.21108832       5.95411816  T        0
Si      22.66314001       4.30072187       5.40205959  T        0
Si      22.69847198       4.30631660       2.17522437  T        0
Si      20.94436070       2.70517294      -0.05186589  T        0
Si      22.30150355      -0.19429552       0.05905844  T        0
O       21.58025934       3.17883372      -1.49750479  T        0
O       23.63360016       0.02596277      -0.90205037  T        0
O       21.47062794      -1.52347154       7.88380204  T        0
O       21.52201158      -1.58813814      -0.36477616  T        0
O       17.09029687       3.83746854       8.93448634  T        0
O       12.26654786       2.88869571       7.63740236  T        0
O       16.97623579       1.34387231       7.88075868  T        0
O       15.22826203      -0.43485734       9.02585694  T        0
O       14.05280933       7.15690196       7.67765530  T        0
Si      17.57395609       2.86299896       7.68967133  T        0
Si      16.20614754      -0.10106422       7.72959473  T        0
O       15.64007336       8.42856244      -2.29499729  T        0
O       15.52651713       5.84906307      -1.95761790  T        0
O       13.11087239       1.14895041      -1.92976976  T        0
O       16.97695918       3.67719729      -1.33750022  T        0
O       11.73914007       3.20761479      -2.75914075  T        0
O       16.39547776       4.10358543      -3.85251040  T        0
O       14.39223974       3.46627603      -2.15488794  T        0
O       13.17942886       7.17901912      -2.30641191  T        0
O       15.35710436      -0.18174369      -1.34443316  T        0
O       14.53851286      -0.14194189      -3.86308944  T        0
Si      15.80189805       4.27589271      -2.32453612  T        0
Si      12.96414029       2.77871591      -1.74249048  T        0
Si      14.70391649       7.23072612      -1.64794525  T        0
Si      14.00816461      -0.16868112      -2.29825275  T        0
O       12.40309589      -3.17711276       7.59015827  T        0
O       17.37590329      -1.26031825       7.65902703  T        0
O       13.15329570      -1.69029197       1.90882440  T        0
O       13.20517298      -1.45880546       5.65042738  T        0
O       11.68949989      -3.89068936       2.36188552  T        0
O       12.01287659      -3.74745941       5.02460676  T        0
O       12.88654674      -3.43489678      -0.05084829  T        0
O       14.55465130      -3.75513132       6.15115139  T        0
O       14.25482605      -4.17582439       2.18999357  T        0
O       11.30280945      -6.10255056       3.88243295  T        0
O       17.50032817      -1.27003476      -0.05541139  T        0
O        9.53928979      -4.07051561       4.04374852  T        0
Si      12.99128127      -3.25805896       1.58531999  T        0
Si      13.05096589      -3.04639620       6.07739136  T        0
Si      11.12860653      -4.45521891       3.81178790  T        0
O       13.17840864      -1.53731087      -1.95229656  T        0
O       11.61039406      -3.70897736      -2.33199095  T        0
O       14.25584548      -4.00870446      -2.32912764  T        0
Si      13.00443673      -3.15372363      -1.66044985  T        0
H       15.75671561       9.37610020       5.45468838  F        0
H       15.75699573       9.38061947       2.07980242  F        0
H       11.31595404       9.37380971       3.76235534  F        0
H        8.59637561       4.20354031       3.76204115  F        0
H       22.00636260       3.98381786       9.40800429  F        0
H       23.80717611       0.00053719       9.40943871  F        0
H       23.07136830       6.61169953       5.84807952  F        0
H       23.06898247       6.62073046       1.68518482  F        0
H       24.75935035       3.15857028       1.68481677  F        0
H       24.75385446       3.15950316       5.84781029  F        0
H       23.80717611       0.00053719       1.86293871  F        0
H       23.83786620      -0.00082127       5.68998115  F        0
H       21.98145514       3.97853683      -1.88343379  F        0
H       23.83786620      -0.00082127      -1.85651885  F        0
H       20.87589949      -2.23551612       7.54748495  F        0
H       20.87589949      -2.23551612       0.00098495  F        0
H       16.24121950       3.98053732       9.41400179  F        0
H       12.76321398       2.97604733       8.47995589  F        0
H       14.43595606      -0.00016978       9.40393244  F        0
H       14.61405599       7.13800201       8.47661577  F        0
H       15.75671561       9.37610020      -2.09181162  F        0
H       11.39412799       3.98861071      -3.24188863  F        0
H       15.92661844       4.15901570      -4.70770176  F        0
H       12.88191441       7.13773895      -3.23957932  F        0
H       14.07160463      -0.00015943      -4.71417255  F        0
H       12.76333233      -2.97624889       8.47967776  F        0
H       17.37005868      -2.23547784       7.54748707  F        0
H       15.19994748      -3.98105913       5.45374646  F        0
H       15.20026252      -3.97967031       2.08033702  F        0
H       12.12595522      -6.62290057       3.76264176  F        0
H       17.37005868      -2.23547784       0.00098707  F        0
H        8.59739021      -4.20337067       3.76217937  F        0
H       11.39521725      -3.98937216      -3.24237523  F        0
H       15.19994748      -3.98105913      -2.09275354  F        0
Fe      16.46061390       0.22899825       3.14500923  T        0
Fe      17.58523008       2.66922922       4.46518178  T        1
O       17.96145687       1.02282509       3.78356020  T        2
