147
Lattice="20.102 0.0 0.0 0.0 19.731 0.0 0.0 0.0 13.253" Properties=species:S:1:pos:R:3:move_mask:L:1:tags:I:1 i=77 E=-3472.0240129048 regions="_JSON [\"Active\"]" n_terminators=36 energy=-985.2279285148456 pbc="F F F"
O       10.01421559       1.31304646       9.38460168  T        0
O        7.66469606       1.14391573      10.55309794  T        0
O        7.90151964       2.63303322       8.30893282  T        0
O        8.04743079      -0.03626156       8.21046915  T        0
O        5.93509646       1.17677781      12.91906342  T        0
O        4.74221325       0.85205008      10.25056654  T        0
O       15.68563391       0.80996747       9.74127195  T        0
O       14.23790443       0.86302251       6.52302816  T        0
O       12.54181413       2.51815659       5.19900993  T        0
O       11.69009506       0.82533110       7.10474774  T        0
O        2.15725419       1.40499846       9.71146845  T        0
O       12.94757535       1.50160697       9.65875019  T        0
O        8.38262339       0.98576049       4.21560871  T        0
O        4.03790517       2.47840984       8.22863844  T        0
O       14.60667871       2.49140940      11.54375046  T        0
O       10.23417412       2.91774951       3.82420107  T        0
O       12.60110140       3.40383666       2.67337657  T        0
O       11.76319634       4.94611621       4.78931042  T        0
O        3.49026837       3.27158305       5.68757552  T        0
O        4.03577961       5.01735758       7.63416457  T        0
O       14.07813038       4.99333690      12.30208140  T        0
O        5.97047660       3.37321894       6.62259731  T        0
O       16.41373740       4.01810382      12.90240065  T        0
O        7.84859673       5.11812275       7.49097266  T        0
O        8.42011528       3.16066695       5.71926827  T        0
O        7.74692197       3.36951106       3.08827959  T        0
Si       8.43225166       1.30228729       9.08327031  T        0
Al       6.08353722       0.62669620      11.28148146  T        0
Si      12.70713858       1.04591470       5.89104475  T        0
Al      11.57459460       0.76338956       8.81661963  T        0
Si       3.66452861       1.14946984       9.09470776  T        0
Si      14.29654074       1.28411325      10.49386272  T        0
Si      11.76655038       3.45113828       4.10339222  T        0
Si       4.39590027       3.52771832       7.04729397  T        0
Si      14.82696766       3.59619980      12.73393701  T        0
Si       7.54365708       3.56865876       7.02490511  T        0
Si       8.67850062       2.59197841       4.20835018  T        0
O       13.51494895       0.82324692      15.40890296  T        0
O        5.24389262       2.56435102      15.15321769  T        0
O        3.72897952       0.55613701      14.39903159  T        0
O        6.05301304       0.00137782      15.35644435  T        0
O        9.04687059       0.86477931      17.02898081  T        0
O       12.60501932       3.32812902      16.14879820  T        0
O       14.22412219       3.01187174      14.13301875  T        0
O       15.17418824       2.41937117      16.61569813  T        0
Si       5.29013947       1.09071667      14.40215345  T        0
Si      13.85946510       2.40828866      15.60709898  T        0
O       10.10681930      -1.45280075      17.56393678  T        0
O       12.40176417      -1.50820375      16.10085563  T        0
O       12.44711483      -2.23910609      18.73269303  T        0
O       12.18215996       0.27598145      17.92035384  T        0
O       13.59536426      -1.21885534      13.68929799  T        0
O        4.95861887      -1.29428511      17.54358429  T        0
O       15.10430099      -1.43607937      15.67226892  T        0
O        8.39548018      -0.30851734      19.34742257  T        0
O        7.50595206      -1.41282486      17.02114857  T        0
O        5.84860133      -2.66762191      15.34156884  T        0
O        5.27351648      -5.15660097      14.44601694  T        0
O        3.73345597      -2.97880396      13.87966517  T        0
Si      11.73484916      -1.27558615      17.59398284  T        0
Si      13.63863637      -0.79484604      15.29718229  T        0
Si       8.71348328      -0.57906197      17.74530481  T        0
Si       6.03299795      -1.33560147      16.29087918  T        0
Si       5.26266671      -3.54278071      14.08793144  T        0
O       10.02868215      -1.09556397       4.00238503  T        0
O       12.23557748      -1.48829965       2.53271811  T        0
O       11.93435023      -2.67174232       4.94515069  T        0
O       12.45098355      -0.05744338       4.70956415  T        0
O        3.72031185      -1.51269841       5.76783351  T        0
O        6.68136728      -1.09194201      11.40327838  T        0
O        3.81895487      -2.79746706       8.08561272  T        0
O       14.82661146      -2.58412291      11.71446043  T        0
O        5.88475027      -1.28267311       7.33464962  T        0
O       16.12327205      -0.48538657      12.85747153  T        0
O        3.59383388      -0.11546072       8.04503292  T        0
O       13.91208074      -0.08928740      11.43727637  T        0
O        7.49325867      -7.40523433       7.88314756  T        0
O        8.02859427      -2.68806205       7.98426190  T        0
O        8.05573147      -1.15164010       5.79882178  T        0
O        7.52579486      -1.34003575       3.16028630  T        0
O       11.68823538      -0.94333691       9.43898812  T        0
O       10.24357459      -3.20311812       9.36075018  T        0
O        9.86131983      -7.57118400       9.05491886  T        0
O        7.88315429      -3.25749837      10.61318226  T        0
O        7.70629637      -7.07820612      10.57344047  T        0
O        8.53598158      -5.16921321       8.86189339  T        0
O        6.21988405      -3.34509912      12.75131316  T        0
O        5.25346190      -3.12693175      10.28208372  T        0
O       15.26914515      -3.38440161       9.16409629  T        0
O       14.15159110      -3.87895186       5.96616242  T        0
O       11.75872098      -5.01083090       6.13841681  T        0
O       12.22911775      -2.77125192       7.56029643  T        0
O        2.67623633      -2.81365327      10.56987325  T        0
O       12.75011974      -3.22848574      10.14290668  T        0
O        3.51934454      -5.09242248       9.54279108  T        0
O       14.45502792      -5.08882865      11.06684054  T        0
Si      11.64645207      -1.32278849       4.06431755  T        0
Si       4.26139611      -1.40760891       7.32264739  T        0
Si      14.68670233      -1.15083760      12.47029042  T        0
Si       7.50766723      -1.28088832       7.32028449  T        0
Si       8.48773958      -0.64512762       4.30174489  T        0
Si       8.66144295      -3.57868762       9.19418551  T        0
Si       8.41478060      -6.78425064       9.10489121  T        0
Si       6.47213952      -2.71575972      11.27282750  T        0
Si      12.54706928      -3.56678239       6.15562761  T        0
Si      11.70339040      -2.53990782       9.07286209  T        0
Si       3.82156071      -3.47385007       9.58140200  T        0
Si      14.31202886      -3.56086589      10.49662438  T        0
H       16.04398914       0.93401564       8.84225549  F        0
H       15.03932989       0.97965726       5.99268335  F        0
H        1.92726146       1.06764952      10.59110356  F        0
H       13.35632229       2.80449888       2.51220488  F        0
H       11.61525895       5.84615817       4.45233654  F        0
H        3.68470477       2.53683452       5.08310689  F        0
H        4.37526294       5.84706860       7.26036481  F        0
H       14.42640568       5.84706861      12.61908764  F        0
H       17.11292418       3.38174117      13.10695602  F        0
H        7.92514400       5.84771651       6.85279547  F        0
H        6.78202891       3.33840099       2.93525138  F        0
H        6.01932000       3.06180763      15.45091456  F        0
H        3.12887898       0.94105847      13.74983427  F        0
H        8.66651872       1.74299316      17.19253912  F        0
H       12.10039016       3.38484891      16.98641506  F        0
H       15.83774431       3.12895724      16.63016863  F        0
H       12.25872462      -3.14188650      19.04928408  F        0
H       12.34310542       0.57187261      18.81988324  F        0
H        4.05829635      -0.93431141      17.66371282  F        0
H       15.58095514      -1.34062803      16.50370227  F        0
H        7.89439933      -0.88911559      19.94994329  F        0
H        5.67587981      -5.84736437      13.88688066  F        0
H        2.98936131      -3.38203693      13.39901228  F        0
H       13.03074803      -0.98698471       2.26762503  F        0
H        3.46536401      -0.71595242       5.26900440  F        0
H       16.97340650      -0.94135423      12.75613404  F        0
H        7.69777211      -8.25320978       7.44841170  F        0
H        6.55301950      -1.44431996       3.13509397  F        0
H       10.76020325      -7.30451100       9.31164420  F        0
H        6.74596321      -7.06114901      10.74076342  F        0
H       15.75661380      -2.56193752       9.00459925  F        0
H       14.91456244      -3.38427837       6.30897701  F        0
H       12.17714150      -5.84801228       6.40017283  F        0
H        1.73086688      -2.74256168      10.35624453  F        0
H        4.05997682      -5.86251935       9.28699688  F        0
H       14.11111956      -5.86251936      10.59245558  F        0
Fe      11.88635117      -0.55117398      11.49950365  T        0
Fe       8.64791660      -0.41309143      11.54183556  T        1
O       10.26346131      -0.70091618      12.28309983  T        2
