136
Lattice="20.102 0.0 0.0 0.0 19.731 0.0 0.0 0.0 13.253" Properties=species:S:1:pos:R:3:move_mask:L:1:tags:I:1 i=77 E=-3472.0240129048 regions="_JSON [\"Active\"]" n_terminators=30 energy=-930.3358154813374 pbc="F F F"
O       10.18343092       1.27344899       9.08176971  T        0
O        7.53283759       1.19264144      10.69027606  T        0
O       17.82746030       1.50316719       9.30236977  T        0
O        8.34893281       2.85568457       8.28135621  T        0
O        8.38533088       7.04546626       8.35676182  T        0
O        7.84764239       0.09993415       8.03225672  T        0
O        6.11291041       0.29644394      12.89120376  T        0
O       16.40509400       0.79535960       7.22546954  T        0
O       14.18532798       0.77844936       1.93673781  T        0
O        4.86053971       1.13723236      10.63685693  T        0
O       15.18128673       0.83407737       9.54765076  T        0
O       16.40056511       2.60338706       5.24300107  T        0
O       14.14744864       1.43762994       5.95101950  T        0
O       16.06505324       0.06019441       4.70612914  T        0
O       12.19205263       7.32084023       5.63732184  T        0
O       11.61849458       2.49615642       5.73721702  T        0
O       12.14010899       0.81818916       7.56711384  T        0
O        2.30843097       1.50107390       9.81525704  T        0
O       12.65322729       1.22087766      10.15506655  T        0
O        8.19050399       9.17119553       3.64155808  T        0
O        8.25644479       0.93486910       3.84524998  T        0
O        4.19508839       2.75868433       8.57775013  T        0
O        3.92580316       7.19798690       8.67432571  T        0
O       14.51667702       2.81164553      11.23124789  T        0
O        9.92511584       3.02100337       3.55271302  T        0
O       10.15639650       7.30095376       3.85365266  T        0
O       12.79244466       2.68273300       3.17742929  T        0
O       12.55440545       7.41697484       2.92847170  T        0
O       11.73308183       5.14547325       4.28902074  T        0
O        3.53928681       7.36067160       6.04663093  T        0
O        3.50530482       2.69795162       6.02400710  T        0
O       13.67039296       3.13137604       0.71444069  T        0
O       15.42950417       2.95319445       2.74701475  T        0
O        4.28339818       5.02181823       7.18770239  T        0
O        6.03235541       7.03190986       7.00812552  T        0
O        6.06987902       3.06878814       6.74339711  T        0
O        7.84596715       5.05850201       6.82172184  T        0
O        8.24499840       7.42923421       5.67130974  T        0
O        8.60548908       2.71647190       5.82491106  T        0
O        7.73789275       6.59467334       3.10919219  T        0
O        7.19227335       3.37872347       3.80805048  T        0
O       17.97386587       3.55333255       3.25890572  T        0
O       16.06445489       5.02037713       4.44418248  T        0
Al       8.36445520       1.27855026       9.17805712  T        0
Si       6.21644969       0.42064907      11.25309598  T        0
Si      16.60968869       0.52568031       8.81396216  T        0
Si      15.76239935       1.22036931       5.79312345  T        0
Si      12.56694254       1.15843602       6.01792824  T        0
Si      11.64242141       0.51490596       9.10149404  T        0
Si       3.87612419       1.34798020       9.34871059  T        0
Si      14.18155026       1.28318236      10.75394587  T        0
Al      11.53576382       3.44020579       4.09755723  T        0
Si      11.67684883       6.74751317       4.16759215  T        0
Si      13.99535243       2.39632519       2.16141683  T        0
Si       4.45871081       6.64834032       7.21708026  T        0
Si       4.50297283       3.40658495       7.12027079  T        0
Si       7.62135406       6.66893306       6.95451907  T        0
Si       7.61769042       3.46942166       6.95068542  T        0
Si       8.58624625       7.62476644       4.07365773  T        0
Si       8.54431349       2.50624176       4.14853363  T        0
Si      16.44654025       3.52923066       3.88842968  T        0
O       10.04337807      -1.04795639       3.71256275  T        0
O       12.52054407      -1.21993655       2.73999076  T        0
O       11.75905853      -2.70042729       4.87048292  T        0
O       12.12553914      -0.08150147       5.08955288  T        0
O        3.27806997      -1.21271041       6.08059380  T        0
O       13.90494117      -1.44931831       0.47608209  T        0
O        6.23712422      -1.14535892      10.77825954  T        0
O       17.08245105      -1.03523681       9.14163121  T        0
O       15.14475461      -1.55117987       2.84589310  T        0
O        3.97240410      -2.50780388       8.23264624  T        0
O        5.84194236      -1.17768809       6.80096468  T        0
O        4.07453886       0.12710739       8.29625566  T        0
O       14.35408346       0.29538088      12.06171687  T        0
O        7.90656338      -2.56095283       7.72890188  T        0
O        8.22940036      -0.99441708       5.65883582  T        0
O        7.52310672      -1.51632930       3.08897929  T        0
O       17.80379692      -1.55904151       3.41483520  T        0
O       11.54932358      -1.06485636       9.41223304  T        0
O       16.16299573      -2.53765419       5.17014282  T        0
O        9.94272795      -3.18221816       9.33978143  T        0
O        7.46316341      -3.42181712      10.23446847  T        0
O        8.31616774      -5.05498874       8.26936434  T        0
O        6.54984623      -3.15610877      12.64190307  T        0
O       15.65508618      -3.04698604       7.82047811  T        0
O        4.78541136      -3.34276087      10.64284442  T        0
O       16.24850000      -5.03107676       6.06923635  T        0
O       13.92492068      -3.71960815       6.01752625  T        0
O       11.67246837      -5.10168438       6.02877987  T        0
O       11.90186624      -2.84724467       7.51730131  T        0
O        2.17908655      -3.53129116      10.01024372  T        0
O       12.38600928      -3.52108706      10.12626525  T        0
O        3.92280492      -5.06725827       8.74875394  T        0
Si      11.61131975      -1.27189663       4.09016429  T        0
Si      13.93377972      -0.82659238       1.99969988  T        0
Si       4.30950989      -1.18169731       7.35983003  T        0
Si       7.45321183      -1.13554314       7.08871954  T        0
Si       8.50414702      -0.66292222       4.09404137  T        0
Si      16.28114512      -1.39403512       4.00913049  T        0
Si       8.40427329      -3.54897375       8.90960755  T        0
Si       6.24625959      -2.74777618      11.08157848  T        0
Si      15.51838550      -3.56912086       6.24738250  T        0
Si      12.30791326      -3.58844578       6.11963868  T        0
Si      11.45306339      -2.66830606       9.07347992  T        0
Si       3.71932037      -3.58507823       9.42231390  T        0
H       18.28958667       1.43588107      10.15436837  F        0
H        8.32487050       7.90186745       8.80281456  F        0
H        6.01931354       0.95312461      13.59787507  F        0
H       12.40451339       8.25291401       5.80455660  F        0
H        1.92726146       1.06764952      10.59110356  F        0
H        8.57917776       9.96978004       4.04186183  F        0
H        4.22937585       8.00675492       9.12987558  F        0
H       14.56690736       3.08960840      12.16034191  F        0
H       13.35632228       7.06085325       2.51220488  F        0
H        3.68470478       7.32851759       5.08310689  F        0
H        3.68470477       2.53683452       5.08310689  F        0
H       14.23421140       3.11626372      -0.07819396  F        0
H        6.78202892       6.52695113       2.93525138  F        0
H        6.78202891       3.33840099       2.93525138  F        0
H       18.37141861       2.74226592       2.89672377  F        0
H       16.04230866       5.86222357       3.96597143  F        0
H        3.46536401      -0.71595242       5.26900440  F        0
H       14.08297195      -0.95342037      -0.34490676  F        0
H       16.50115869      -1.80559776       8.94650256  F        0
H       14.37509522      -0.66310164      11.91539968  F        0
H        6.55301950      -1.44431996       3.13509397  F        0
H       18.17502403      -1.06794529       2.66186474  F        0
H        8.48702655      -5.84645393       8.80063176  F        0
H        5.86807409      -3.11655948      13.33116226  F        0
H       16.41758072      -2.53713028       8.16986141  F        0
H       15.72702256      -5.84736437       5.99260349  F        0
H       12.17714150      -5.84801228       6.40017283  F        0
H        1.73086688      -2.74256168      10.35624453  F        0
H       13.32025658      -3.33869676      10.31771692  F        0
H        4.05997682      -5.86251935       9.28699688  F        0
Fe      10.19085641       2.31163345       7.20963619  T        1
