136
Lattice="24.397 0.0 0.0 0.0 24.397 0.0 0.0 0.0 24.397" Properties=species:S:1:pos:R:3:move_mask:L:1:tags:I:1 i=41 E=-6943.8331748197 regions="_JSON [\"Active\"]" n_terminators=32 energy=-912.5492627857352 pbc="F F F"
O       21.70133522       2.53763405      -0.07529085  T        0
O       21.71701947       5.97263031       3.52369110  T        0
O       20.85648508      12.37643346       3.64327853  T        0
O       21.92847042      -0.21231260       2.65763324  T        0
O       18.02423936       9.77771102       3.83520007  T        0
O       21.89038028       3.43893178       6.28033719  T        0
O       23.62772076       1.65030974       1.88918719  T        0
O       22.58671858       5.25706487       8.13222085  T        0
O       22.75595372       7.93626440       5.29951789  T        0
O       20.11057493      10.52470141       5.35163430  T        0
O       23.63036672       4.22539742       4.40946366  T        0
O       18.87599007      14.18418786       4.21845688  T        0
O       16.13323490      11.66935540       4.12127145  T        0
O       20.86612054       5.92839910       6.23682092  T        0
O       18.39871947       8.74331588       6.33091257  T        0
O       22.01478655      12.31810640       6.09693654  T        0
O       20.91658997      -0.03460051       0.12275764  T        0
O       24.40254609       2.55555936       6.34477950  T        0
O       24.31275228       6.24144556       2.75387901  T        0
O       18.31929438      12.19054659       2.67145278  T        0
O       22.62807077       4.34798245       1.88864882  T        0
O       22.76750397       4.34904729      10.68075594  T        0
O       19.99402284       8.02765270       4.38109887  T        0
O       22.64819453      10.47197666       4.38528678  T        0
O       20.15127476      13.99476489       1.76552602  T        0
O       16.54828925      10.39306236       1.73317882  T        0
O       22.72384114       1.69650413       4.42936487  T        0
O       20.16457985       4.07041526       8.11974699  T        0
Al      23.17279695       2.98518271       0.88402467  T        0
Si      23.59704579       4.85714066       9.34734831  T        0
Al      21.29800816       7.03264702       4.96303204  T        0
Si      21.39707563      11.41331452       4.86681075  T        0
Si      23.18163446       0.76016419       3.15379549  T        0
Si      19.13194661       9.25885425       4.94328479  T        0
Si      21.35375751       4.72316496       7.17007589  T        0
Si      23.61872401       9.22365903       4.86206521  T        0
Si      23.15527557       2.96616787       5.36967328  T        0
Si      17.25534552      11.01310042       3.09155488  T        0
Si      19.55374844      13.19396976       3.07716978  T        0
Si      23.15964525       5.19961839       3.20091144  T        0
O       24.61024434       3.66336231       8.82056874  T        0
O       24.61791637       8.78603597       3.59884722  T        0
O       28.00669494       8.84383107       0.16549713  T        0
O       28.87735865       6.76927172       1.74242696  T        0
O       26.23156311       6.71905089       4.37533858  T        0
O       26.28285095       4.26959552       6.75129734  T        0
O       24.55856526       9.85271142       6.07309871  T        0
O       24.48394521       6.16423266       9.84313696  T        0
O       26.34082582       7.74008983       1.85511468  T        0
O       26.36081182       1.85638604       8.09293149  T        0
Si      27.61544820       7.40343281       0.88377557  T        0
Si      25.38158138       7.41553758       3.14329298  T        0
Si      25.42030694       3.08227599       7.51283255  T        0
O       28.00373017       5.93503610      -2.80092534  T        0
O       24.58728007       2.37614992      -2.62750257  T        0
O       26.24052291       1.72243230      -0.60259302  T        0
O       28.92316794       4.39176606      -0.71643826  T        0
O       27.21904580       6.27697321      -0.23050024  T        0
O       24.39894761      -0.12605590      -3.65285868  T        0
O       26.43099894       4.15681586      -1.78765869  T        0
Si      27.63344062       5.18312566      -1.37610207  T        0
Si      25.39943097       2.96736766      -1.30848756  T        0
O       11.91779400       3.39494811      -3.55584432  T        0
O       18.21504302       2.56222306      -3.53270385  T        0
O       20.84932641       2.38626207      -6.28424052  T        0
O       15.66597964      -0.16364572      -3.67195317  T        0
O       14.85780214       6.40926287      -3.67785599  T        0
O       20.11700900       0.80548328      -4.26629839  T        0
O       22.55577508       0.73339951      -1.88691364  T        0
O       13.82168280       4.39590599      -5.14531418  T        0
O       18.86544992       1.85458877      -8.06493634  T        0
O       16.42234643       1.78043298      -5.34213120  T        0
O       24.38556458       3.51875484      -0.20728978  T        0
O       18.14321765       0.02881115      -2.63249739  T        0
O       21.89904457      -0.11544455      -6.08492648  T        0
O       12.16573859       2.48576596      -6.13616063  T        0
O       15.67673516       6.02415795      -6.25133130  T        0
O       18.37669030       3.44535129      -6.06522345  T        0
O       19.98718172       1.69240286      -1.72449430  T        0
O       22.63248814       1.68621793      -4.36037204  T        0
O       20.17572418       4.28757782      -7.93835499  T        0
O       16.40876421       4.31335402      -4.44558574  T        0
O       13.93466802       1.79567905      -4.38946924  T        0
Si      19.10389219       1.26742402      -3.08116970  T        0
Si      21.36193267       1.20511574      -5.27044406  T        0
Si      23.57438536       1.19077243      -3.11519095  T        0
Si      15.16244376       5.29914254      -4.86748057  T        0
Si      19.56522750       3.00652039      -7.10304598  T        0
Si      15.16262152       0.82708657      -4.89036239  T        0
Si      21.34851597       1.15590306      -0.89069009  T        0
Si      17.35241408       3.04191300      -4.85779567  T        0
Si      12.94850999       3.04529487      -4.80537081  T        0
O       22.52103717      -1.95743117       0.61185682  T        0
O       24.38405690      -0.18209011       3.78476209  T        0
O       20.08738531      -1.86828255       1.94178898  T        0
Si      21.37597520      -1.02742705       1.35620379  T        0
O       17.68159119      -1.91543223      -4.26219215  T        0
O       14.60070214      -0.06172747      -6.15477571  T        0
O       16.37413774      -1.87467257      -1.82095055  T        0
Si      16.95336917      -1.00141885      -3.09317492  T        0
H       19.36965547      14.75328399       4.82834093  F        0
H       15.74260560      11.12626617       4.82836018  F        0
H       17.49826767       8.95372279       6.60186186  F        0
H       21.54216027      12.99764967       6.60187561  F        0
H       21.86314578       4.61082969      10.95406022  F        0
H       19.78591980      14.73191782       1.24430354  F        0
H       15.76397041      10.70999753       1.24433830  F        0
H       19.54188528       4.61080343       8.63276969  F        0
H       28.68412771       8.95914275      -0.52719976  F        0
H       29.22534432       7.17131743       2.55494170  F        0
H       26.95194123       7.17131746       4.82834527  F        0
H       26.95194124       4.82834452       7.17131883  F        0
H       25.19630608       9.34383456       6.60185911  F        0
H       25.19630604       6.60185806       9.34383627  F        0
H       26.93058086       1.24433163       7.58757011  F        0
H       28.68420928       6.62630035      -2.86021198  F        0
H       26.95192867       1.27083937      -1.07240246  F        0
H       29.22533941       3.54426653      -1.07238230  F        0
H       25.19622735      -0.50276655      -3.24494277  F        0
H       11.67126774       4.28721833      -3.23949353  F        0
H       14.01033133       6.62630079      -3.23950641  F        0
H       19.36968740       1.27081557      -8.65438303  F        0
H       21.54221652      -0.50278066      -6.89866328  F        0
H       11.39908395       2.85457329      -6.60213759  F        0
H       15.44301081       6.89846591      -6.60212382  F        0
H       19.78593015       4.85484827      -8.63303166  F        0
H       23.12589418      -2.55519498       1.07214050  F        0
H       24.89950013      -0.79949361       3.24468082  F        0
H       19.54187317      -2.53384464       1.48839915  F        0
H       17.22541613      -2.55520754      -4.82860724  F        0
H       15.05289904      -0.79957238      -6.60212108  F        0
H       16.80916483      -2.53384737      -1.24459400  F        0
Fe      20.25408787       3.82150507      -0.89029278  T        0
Fe      20.71136958       5.19417512       1.96616646  T        1
O       20.78164214       4.60309879      -2.27635202  T        2
O       19.61733891       4.64957419       0.62540184  T        3
