139
Lattice="19.123 0.0 0.0 0.0 14.277 0.0 0.0 0.0 7.5465" Properties=species:S:1:pos:R:3:move_mask:L:1:tags:I:1 i=128 E=-2603.9155142701 regions="_JSON [\"Active\"]" n_terminators=32 energy=-934.4916794310487 pbc="F F F"
O       15.80788880       8.43442451       5.63609113  T        0
O       12.73371770       1.10990251       2.11032187  T        0
O       15.74081253       5.77302066       5.75980301  T        0
O       12.96782818      13.15620089       1.53992021  T        0
O       12.72832230      13.17336474       5.42971836  T        0
O       15.78806751       5.85233271       1.91677624  T        0
O       13.04573292       1.12480473       6.04890279  T        0
O       15.68277397       8.51309315       1.80219408  T        0
O       17.04893479      10.95596308       6.29167996  T        0
O       11.54958728       3.45354475       2.42541504  T        0
O       17.04924177       3.46405375       6.26531342  T        0
O       11.84311042      10.80419187       2.42922989  T        0
O       11.53453306      10.83259355       5.10836598  T        0
O       17.05780777       3.32068047       1.25345288  T        0
O       11.86204550       3.44251648       5.10019859  T        0
O       16.99700097      10.80092422       1.27269387  T        0
O       16.29841856      10.15299006       3.73578018  T        0
O       12.43505692       2.76498221      -0.03758608  T        0
O       16.30637369       4.14132043       3.81694573  T        0
O       12.72012605      11.17870576      -0.09821322  T        0
O       14.14957017      10.90195764       5.65230034  T        0
O       14.16752689       3.37156127       1.89133297  T        0
O       14.44807082       3.39603055       5.62176718  T        0
O       14.42565869      10.91436678       1.95721474  T        0
O       11.61923000       8.48956328       3.78720645  T        0
O       17.32418361       1.07183336      -0.26782569  T        0
O       11.60996209       5.77828164       3.78605316  T        0
O       17.31500000      13.13832601      -0.11190232  T        0
O        9.50311999      10.15222155       3.38858709  T        0
O        9.50218831       4.09129884       4.13370063  T        0
O       13.52211596       7.11917060       5.08891334  T        0
O       13.47470046       7.13393183       2.42383762  T        0
O       14.44264377       7.05006156      -0.06410965  T        0
Al      15.70261930      10.26069561       5.45844626  T        0
Si      12.73997419       2.68637541       1.57725845  T        0
Si      15.85472568       4.16013709       5.40721441  T        0
Si      12.96890365      11.51174916       1.48073990  T        0
Si      12.72498844      11.59682975       5.95939315  T        0
Al      15.71916968       4.01951687       2.09269373  T        0
Si      12.99265856       2.77004389       6.07222867  T        0
Si      15.81859244      10.12144272       2.15297951  T        0
Si      11.11201065      10.06630701       3.71095364  T        0
Si      17.59765740       2.71462504      -0.15919089  T        0
Si      11.11618153       4.19634354       3.83192580  T        0
Si      17.59853449      11.50878621      -0.08970738  T        0
Si      14.85298158       7.13897574       6.02907226  T        0
Si      14.82234975       7.13779164       1.50863363  T        0
Si      12.53103192       7.13095782       3.77315350  T        0
O       19.17862826       3.05080092       7.90945735  T        0
O       19.20119958      11.27333014       7.97108214  T        0
O       22.55780243       8.30990179       2.21125988  T        0
O       21.58516364      10.65739919       1.21331827  T        0
O       22.22612072      10.46460110       3.78647544  T        0
O       24.23302502      10.31258143       1.85485932  T        0
O       20.98977444      13.11132735       0.20043928  T        0
O       19.20454976       2.98673413      -0.43403680  T        0
O       19.22446991      11.25173497      -0.08037598  T        0
Si      22.66019182       9.95998212       2.26309384  T        0
Si      20.86773516      11.48434918      -0.03109737  T        0
O       21.56134239      11.07737383      -1.48096499  T        0
O       12.82076557       1.21364050       9.63942690  T        0
O       12.83061305      13.06927296       9.76729679  T        0
O       15.54775034       5.81679980       9.57700037  T        0
O       15.52613370       8.48730654       9.70673759  T        0
O       11.52810592       3.51763445       9.92855519  T        0
O       11.51065465      10.75000796       9.91591313  T        0
O       16.76022187       3.49646343       8.87666587  T        0
O       16.80424990      10.75973967       8.91311231  T        0
O       16.04566504      10.56340664      11.39601493  T        0
O       12.71560051       3.10775715       7.64539311  T        0
O       16.36410977       3.98484677      11.39903285  T        0
O       12.41747973      11.52240922       7.57283450  T        0
O       14.24671181       3.50040652       9.80276370  T        0
O       14.19429309      10.76053994       9.42801209  T        0
O       17.33369326       1.11731032       7.63147116  T        0
O       17.32614202      13.20416609       7.80679249  T        0
O       13.16357225       7.11194696       9.83974038  T        0
O       14.44171136       7.22782626       7.59458991  T        0
Si      12.85903366       2.82184870       9.25949148  T        0
Si      12.76629100      11.52215876       9.17940787  T        0
Si      15.71270216       4.21281747       9.90518670  T        0
Si      15.63969543      10.12932909       9.86130543  T        0
Si      17.58051683       2.75636502       7.66512379  T        0
Si      17.59462768      11.56040114       7.70359153  T        0
Si      14.68694710       7.16535744       9.21327859  T        0
O       15.57554859       8.45881640      -2.03285953  T        0
O       15.52825546       5.78981789      -2.17148931  T        0
O       12.83321246      13.04887665      -2.11722734  T        0
O       12.82529543       1.20732277      -2.22790744  T        0
O       16.87810281      10.73741139      -1.35299884  T        0
O       16.80405910       3.51940565      -1.36483301  T        0
O       11.58975169      10.70219366      -2.38073829  T        0
O       11.51565398       3.53343687      -2.38243768  T        0
O       16.37926784      10.28916260      -3.86476021  T        0
O       16.08023411       3.72126780      -3.85379806  T        0
O       14.32124703      10.80519360      -2.19852686  T        0
O       14.19936981       3.51361187      -1.91131170  T        0
O       13.17850515       7.18997898      -2.31522354  T        0
Si      15.76925093      10.06250935      -2.35134813  T        0
Si      15.64942491       4.14825954      -2.32384062  T        0
Si      12.89438640      11.44587397      -1.71166689  T        0
Si      12.77165151       2.75800750      -1.64756643  T        0
Si      14.69776213       7.11736410      -1.68131469  T        0
H       13.50938118       0.51971906       2.07492992  F        0
H       13.50958039      13.75682243       2.07498241  F        0
H       13.51084140      13.75504172       5.44776650  F        0
H       13.50975252       0.52161770       5.44778410  F        0
H       16.56036088       0.51548555      -0.00076213  F        0
H       16.56020813      13.76127004      -0.00066979  F        0
H        8.59739021      10.07362933       3.76217937  F        0
H        8.59637561       4.20354031       3.76204115  F        0
H       20.08726577       2.93486642       7.54597012  F        0
H       20.08739461      11.34211663       7.54749186  F        0
H       23.06957714       7.66254159       1.68550051  F        0
H       22.31947477      10.11404518       4.70477207  F        0
H       24.75845825      11.12041654       1.68709931  F        0
H       21.68557806      13.76129914       0.00087584  F        0
H       20.08726577       2.93486642      -0.00052988  F        0
H       22.00608000      10.28902905      -1.85963567  F        0
H       13.50938118       0.51971906       9.62142992  F        0
H       13.50958039      13.75682243       9.62148241  F        0
H       11.39369377       3.98884644      10.77146895  F        0
H       11.39439525      10.28733182      10.77116771  F        0
H       15.92688062      10.11457984      12.25007275  F        0
H       15.92754156       4.15729643      12.25107281  F        0
H       16.56036088       0.51548555       7.54573787  F        0
H       16.56020813      13.76127004       7.54583021  F        0
H       12.88235039       7.13795337      10.76981689  F        0
H       13.51084140      13.75504172      -2.09873350  F        0
H       13.50975252       0.52161770      -2.09871590  F        0
H       11.39521725      10.28762784      -3.24237523  F        0
H       11.39412799       3.98861071      -3.24188863  F        0
H       15.92569105      10.11584057      -4.70878458  F        0
H       15.92661844       4.15901570      -4.70770176  F        0
H       12.88191441       7.13773895      -3.23957932  F        0
Fe      17.31945347       5.85294517       3.32418057  T        0
Fe      17.38558984       8.50328734       4.25141704  T        1
O       18.58451740       7.40930317       3.05798779  T        2
O       18.59732162       6.89859191       4.48410307  T        3
