136
Lattice="24.397 0.0 0.0 0.0 24.397 0.0 0.0 0.0 24.397" Properties=species:S:1:pos:R:3:move_mask:L:1:tags:I:1 i=41 E=-6943.8331748197 regions="_JSON [\"Active\"]" n_terminators=32 energy=-912.4326410059967 pbc="F F F"
O       21.68987562       2.58838610       0.06234347  T        0
O       21.88452921       6.17552303       3.50889978  T        0
O       15.56647333       9.68718278       6.24843830  T        0
O       21.00610495      12.46643725       3.53031398  T        0
O       21.00544067       3.56070379      12.49822472  T        0
O       15.53315494       6.32160660       9.75903875  T        0
O       21.88025048      -0.02368729       2.52725680  T        0
O       18.38090968       9.63830606       3.33041715  T        0
O       21.81324493       3.56486479       5.92457635  T        0
O       18.36118384       3.30450753       9.62504493  T        0
O       23.77286265       1.72831674       1.79578113  T        0
O       22.84342341       5.40907348       8.01770289  T        0
O       22.64922153       8.00590772       5.33793329  T        0
O       17.62248911      10.55342085       7.85322016  T        0
O       20.08384059      10.58033144       5.22095960  T        0
O       23.68237562       4.28339050       4.21583570  T        0
O       17.65938569       7.89101545      10.52403173  T        0
O       20.05713767       5.19018049      10.58355379  T        0
O       20.87955755       5.99839430       5.86095532  T        0
O       18.14292856       8.89655295       5.93563394  T        0
O       21.98620252      12.30584803       6.08685356  T        0
O       21.00796464       0.00358656       0.00037953  T        0
O       24.33815989       2.67465809       6.28337461  T        0
O       24.40142457       6.26742127       2.57150357  T        0
O       18.07866619       5.90561275       8.93703387  T        0
O       21.96875124       6.11180378      12.27805412  T        0
O       22.64927452       4.37084532       1.75557357  T        0
O       22.64986050       4.37940071      10.50117508  T        0
O       20.14029037       8.04513604       4.35045507  T        0
O       16.63802421       8.00698185       8.00875643  T        0
O       22.64298042      10.49476672       4.36518394  T        0
O       22.81948094       1.73828493       4.28738017  T        0
O       20.06572007       4.40431824       8.00879565  T        0
Al      23.35301480       3.03148460       0.75025025  T        0
Si      23.67028399       4.87686182       9.30984242  T        0
Si      21.40154448       7.12182010       4.79217750  T        0
Si      16.97504895       9.28042081       7.02284099  T        0
Si      21.39448098      11.48134110       4.79827724  T        0
Si      23.23747240       0.79997476       2.99921130  T        0
Si      19.16995297       9.31067754       4.73848576  T        0
Al      21.46939762       4.87585263       7.14751437  T        0
Si      23.60486880       9.27207394       4.86877051  T        0
Si      23.19990999       3.03803802       5.18977073  T        0
Si      19.15246712       4.71639826       9.29085043  T        0
Si      23.19225420       5.27932235       3.01658906  T        0
Si      21.38640811       4.80398213      11.47001789  T        0
Si      16.96423866       7.02652821       9.30138990  T        0
O       24.60754128       3.60854737       8.80609752  T        0
O       24.56370602       8.73653344       3.64676686  T        0
O       26.30249740       6.72689129       4.26272593  T        0
O       26.32639894       4.22889174       6.73815950  T        0
O       24.49200682       9.82368187       6.13341445  T        0
O       24.64672350       6.05532703       9.93131937  T        0
O       26.30283334       8.05425926       1.82745091  T        0
O       26.22917213       1.76628035       8.01530337  T        0
Si      25.41871028       7.45645485       3.07755475  T        0
Si      25.39643631       3.08022232       7.47754849  T        0
O       24.72182896       2.42207697      -2.83021385  T        0
O       26.25040544       1.80651148      -0.68299369  T        0
O       24.35892726      -0.15340366      -3.59900325  T        0
O       26.52985353       4.18065778      -2.06906450  T        0
Si      25.49005661       3.02947142      -1.49886622  T        0
O       24.62887215      -2.70653906       2.42642242  T        0
O       26.31730073      -0.63678136       1.85700835  T        0
O       24.46853024      -3.72539291      -0.07144581  T        0
O       26.32720061      -1.98548187       4.27082213  T        0
Si      25.42910260      -1.40089409       3.01878279  T        0
O       18.35781513       2.75884078      -3.51794782  T        0
O       20.99548635       2.53793912      -6.36682584  T        0
O       15.53757415      -0.18526182      -3.62004027  T        0
O       20.07402840       0.88537221      -4.43946194  T        0
O       22.69418992       1.01068994      -1.81994234  T        0
O       24.44194629       3.62350841      -0.42484812  T        0
O       18.09485740       0.16222395      -2.79681812  T        0
O       21.95852564      -0.01866012      -6.16981725  T        0
O       20.07130117       1.66357831      -1.86014955  T        0
O       22.63349161       1.71126848      -4.38612004  T        0
Si      19.14495267       1.34811838      -3.17477326  T        0
Si      21.38005658       1.28432590      -5.35865014  T        0
Si      23.62329532       1.25240983      -3.16376966  T        0
Si      21.35961230       1.28773801      -0.93574797  T        0
O       18.36547489      -3.52174523       2.75574209  T        0
O       15.55413747      -3.61432816      -0.17621545  T        0
O       21.00027829      -6.39684181       2.53052583  T        0
O       22.66207060      -1.91595853       0.80227004  T        0
O       20.09234370      -4.44554134       0.89990774  T        0
O       24.37122367      -0.25910188       3.51532612  T        0
O       18.12461883      -2.79847824       0.15915269  T        0
O       21.96955496      -6.17850529      -0.01511080  T        0
O       20.11558799      -1.86550819       1.66585123  T        0
O       22.65518337      -4.41446299       1.73404770  T        0
Si      21.41853170      -0.96222294       1.26196000  T        0
Si      21.39276995      -5.37223589       1.29288762  T        0
Si      23.61467334      -3.18688533       1.22743786  T        0
Si      19.17263964      -3.16939484       1.35661509  T        0
O       17.63078673      -1.76455894      -4.44615057  T        0
O       17.63755324      -4.44835620      -1.76643287  T        0
O       16.61967250      -1.92484192      -1.91860819  T        0
Si      16.95219872      -0.93460226      -3.19066666  T        0
Si      16.97074866      -3.19324888      -0.92542591  T        0
H       15.43757914      10.38640764       5.57209357  F        0
H       20.10951523      12.72546585       3.23923157  F        0
H       20.10951519       3.23923103      12.72546793  F        0
H       15.43757911       5.57209275      10.38640946  F        0
H       17.77043279      10.38640226       3.23924444  F        0
H       17.77043311       3.23924387      10.38640412  F        0
H       17.22544067      10.92750153       8.65411313  F        0
H       17.22544070       8.65411150      10.92750362  F        0
H       21.54216027      12.99764967       6.60187561  F        0
H       21.54216028       6.60187434      12.99765198  F        0
H       26.95194123       7.17131746       4.82834527  F        0
H       26.95194124       4.82834452       7.17131883  F        0
H       25.19630608       9.34383456       6.60185911  F        0
H       25.19630604       6.60185806       9.34383627  F        0
H       26.93058105       7.58756876       1.24433203  F        0
H       26.93058086       1.24433163       7.58757011  F        0
H       26.95192867       1.27083937      -1.07240246  F        0
H       25.19622735      -0.50276655      -3.24494277  F        0
H       26.93057835       4.85486043      -1.48866112  F        0
H       26.95192866      -1.07240650       1.27083969  F        0
H       25.19622853      -3.24494603      -0.50276481  F        0
H       26.93057847      -1.48866524       4.85486109  F        0
H       17.77043356       2.85994955      -4.28747201  F        0
H       20.10952426       2.85994950      -6.62656333  F        0
H       15.43756588       0.52708969      -4.28745700  F        0
H       21.54221652      -0.50278066      -6.89866328  F        0
H       17.77043326      -4.28747560       2.85995000  F        0
H       15.43756593      -4.28746062       0.52708992  F        0
H       20.10952426      -6.62656664       2.85995001  F        0
H       21.54221602      -6.89866750      -0.50277915  F        0
H       17.22541613      -2.55520754      -4.82860724  F        0
H       17.22541616      -4.82861063      -2.55520368  F        0
Fe      20.39772781       4.35340662       4.60497826  T        0
Fe      20.72242289       3.44751574       1.57963064  T        1
O       19.39873696       4.36400370       2.84378483  T        2
O       19.75041324       2.95197384       3.28137704  T        3
