141
Lattice="20.102 0.0 0.0 0.0 19.731 0.0 0.0 0.0 13.253" Properties=species:S:1:pos:R:3:move_mask:L:1:tags:I:1 i=77 E=-3472.0240129048 regions="_JSON [\"Active\"]" n_terminators=34 energy=-947.0582250642996 pbc="F F F"
O       10.11011409       8.45739390       9.24540374  T        0
O        9.95593226      18.89116839       4.04424369  T        0
O        9.93168696      11.28034159       4.07343341  T        0
O        2.01654048      11.24939395       4.05524016  T        0
O        7.90845162       8.51721225      10.65012007  T        0
O       12.14566055      18.44009147       2.55312160  T        0
O       12.36107526      11.15783979       2.77918790  T        0
O        7.93455059       7.22607303       8.28178032  T        0
O       11.79100912      17.19883304       4.91721864  T        0
O       11.91892872      12.76898942       4.90863704  T        0
O        8.07799071       9.90444194       8.33280499  T        0
O       12.46352648      19.84381251       4.72150941  T        0
O       12.06752046      10.09974698       5.18406930  T        0
O        3.46468098      10.56521139       6.24015485  T        0
O       16.67887988       8.60083542       7.18521303  T        0
O       13.62221017      11.05918850       0.48528540  T        0
O        3.04921266       8.85303204       4.20118780  T        0
O       13.75763780       8.94271484       2.21978412  T        0
O        4.69169966      11.10906878       3.97314440  T        0
O       15.04381682      11.16301112       2.80011310  T        0
O        3.68683419      12.45467686       8.04784052  T        0
O       16.17741990       7.38757134       4.97375600  T        0
O        5.83464919      10.94205604       7.43939818  T        0
O        5.83711200      19.30484135       7.48865858  T        0
O       14.22792219       8.84955873       6.06786005  T        0
O        3.78915964       9.95503036       8.89815130  T        0
O        5.13049583       9.67451452       1.92415776  T        0
O       16.29199051      10.02398536       4.89210091  T        0
O        8.03175782      12.53956195       7.76273226  T        0
O        7.66375491      17.43212326       8.10012858  T        0
O       12.04511018       7.42156569       5.47301500  T        0
O        7.99001122      10.94117191       5.81995461  T        0
O        7.91875957      18.67942819       5.82690806  T        0
O       12.08916216       9.03993123       7.57916587  T        0
O        7.21938003      11.01726560       3.08610623  T        0
O        7.52033418      18.42031383       3.17164190  T        0
O       12.57598342       8.39846572      10.14905315  T        0
O       17.68131559      11.58646351       3.18008565  T        0
O        8.54961710       8.63895071       4.02956424  T        0
O       11.43879928      10.75795370       9.50845393  T        0
O       11.88702232      19.03691804       9.63583326  T        0
O        5.39223771      12.34157928       1.66888485  T        0
O       16.22667003      17.08938280       4.57857751  T        0
O       15.98075148      12.67654100       4.79108357  T        0
O        9.96995981      17.11533079       9.41688257  T        0
O        9.77916000      12.83088619       9.77344210  T        0
O       10.18622038       6.54142001       3.73524866  T        0
O        7.69914762      16.73764587      10.68477602  T        0
O        7.08339628      13.36212478      10.15346256  T        0
O       12.71804950       6.62784636       3.03061570  T        0
O        8.50513262      14.98870961       8.74387178  T        0
O       11.92234094       4.83698119       4.88937153  T        0
O       16.79585632      12.79270074       7.36403601  T        0
O       13.51007132       6.84916169       0.55483882  T        0
O       16.61306370      17.29385651       7.22146789  T        0
O       15.34317021       6.81849063       2.51311938  T        0
O        5.60351815      14.83165765       1.04447126  T        0
O       15.85505910      14.95949059       6.08054660  T        0
O        5.99725419       6.74235971       6.47960142  T        0
O        3.82652043      13.22911481      -0.34963904  T        0
O       14.22379318      12.95351564       6.80311714  T        0
O       14.14066749      17.02522204       6.27876137  T        0
O        7.60719694       4.72528856       7.44732852  T        0
O       12.33335269      15.04965326       6.16750470  T        0
O        8.48734485       6.60277060       5.72804754  T        0
O       11.50451105      12.77270035       7.76255482  T        0
O       11.85781832      17.33161755       7.57531834  T        0
O        7.67203258       6.21321405       3.16356684  T        0
O       12.34510513      13.14969080      10.35261562  T        0
O       17.88907184       6.31840887       3.15571261  T        0
O       12.37657354      16.43372218      10.09631696  T        0
O       15.96381866       4.88820127       4.35587633  T        0
Si       8.49213333       8.51767893       9.11287203  T        0
Si      11.55932194      18.62655733       4.07747892  T        0
Si      11.56702054      11.30399825       4.20698723  T        0
Si       3.34046244      10.42398931       4.60219593  T        0
Si      13.71658831      10.56462213       2.05279857  T        0
Si       4.20367547      10.94991988       7.64087857  T        0
Si      15.82744461       8.74327839       5.78971818  T        0
Si       7.44089430      11.02514778       7.35936411  T        0
Si       7.43100493      18.88049864       7.37257643  T        0
Si      12.60380053       8.83523475       6.06046717  T        0
Al       8.40579550      10.33192782       4.14394293  T        0
Si       8.36588673      19.20247191       4.34790109  T        0
Si      11.56924362       9.18194877       9.11292226  T        0
Si       5.66808361      11.06091934       2.65531471  T        0
Si      16.23369058      11.32951319       3.91308958  T        0
Si       8.45265143      16.55998837       9.23216179  T        0
Si       8.38816054      13.41501926       9.15444106  T        0
Si      11.70896291       6.35126158       4.27911769  T        0
Si      13.84182529       7.31818591       2.09400204  T        0
Si       5.30861451      13.34721477       0.38668678  T        0
Si      15.69515820      13.33892542       6.25630657  T        0
Si      15.70943989      16.57222954       6.04841284  T        0
Si       7.51665814       6.30785651       6.98855749  T        0
Al      12.56880485      13.28330912       6.50906116  T        0
Si      12.56706604      16.66468506       6.28643393  T        0
Si       8.69230825       7.04779560       4.15824747  T        0
Si      11.31233738      12.37822547       9.32010076  T        0
Si      11.53047408      17.49268625       9.18157136  T        0
Si      16.34314458       6.35333272       3.73301215  T        0
O        8.39125074      20.06927042       8.00282289  T        0
O        8.08803256      20.82524992       4.36428585  T        0
O        6.42621461      13.02272018      -0.78958537  T        0
H        1.81269882      11.30123319       3.09859993  F        0
H        7.07153747       8.87866318      10.98534327  F        0
H       13.03074803      18.74401529       2.26762503  F        0
H       12.34310542      20.30287261       5.56688324  F        0
H       16.63692148       9.14969546       7.98396390  F        0
H       14.08297195      10.81847671      -0.34490677  F        0
H        3.60112680       8.06005012       4.30646574  F        0
H        4.03182275      12.92715973       8.82439874  F        0
H        5.06295559      18.75104696       7.26028496  F        0
H        4.11249823       9.08086468       9.18193973  F        0
H        5.72719027       9.20254625       1.33756862  F        0
H        6.55301950      18.28668004       3.13509397  F        0
H       13.54926599       8.42132791      10.11787432  F        0
H       18.17502404      10.93300163       2.66186473  F        0
H       11.52310955      19.83515307       9.21116341  F        0
H       15.87290964      17.87210703       4.12309272  F        0
H        6.74596320      16.92620537      10.74076342  F        0
H        6.74596321      12.66985099      10.74076342  F        0
H       11.61525895       4.01919395       4.45233654  F        0
H       16.41758072      12.40218664       8.16986141  F        0
H       14.23421140       6.74908840      -0.07819396  F        0
H       16.41758072      17.19386972       8.16986141  F        0
H        5.67587981      15.71242072       0.63388066  F        0
H        5.18772305       6.48136951       6.94399129  F        0
H        2.98936131      13.24709329       0.14601228  F        0
H        7.92514400       4.01763560       6.85279547  F        0
H        6.78202892       6.52695113       2.93525138  F        0
H       13.32025657      13.20375310      10.31771692  F        0
H       18.37141860       7.12308619       2.89672377  F        0
H       13.32025658      16.39230324      10.31771692  F        0
H       16.04230867       4.00312851       3.96597142  F        0
H        8.32625906      20.60985804       8.81306681  F        0
H        8.66651872      21.47399316       3.93953912  F        0
H        6.36643797      12.40218664      -1.54340896  F        0
Fe      10.94427914      14.75897442       4.71453527  T        0
Fe       8.86499503      12.76400394       5.48008789  T        1
O        9.16301154      14.42698948       4.78046048  T        2
