135
Lattice="24.397 0.0 0.0 0.0 24.397 0.0 0.0 0.0 24.397" Properties=species:S:1:pos:R:3:move_mask:L:1:tags:I:1 i=41 E=-6943.8331748197 regions="_JSON [\"Active\"]" n_terminators=24 energy=-949.2116058685828 pbc="F F F"
O        9.42500449      14.61304150      -0.12213218  T        0
O       12.33672981       9.46003703       2.56871253  T        0
O       14.72661984      20.85553860       6.03854360  T        0
O       12.30631946      15.73968073       8.79430283  T        0
O        9.66373039      18.38527800       3.76054989  T        0
O       15.69043973       9.40693571       6.07832425  T        0
O       18.74422902      14.85942281       8.48975017  T        0
O       18.63914118      20.76364928       2.68788988  T        0
O       14.80602466       9.53587244       0.04356142  T        0
O        9.61195955      12.13860189       2.62204962  T        0
O       15.68613436      12.21590116       8.88799601  T        0
O       18.68900143       9.75551619       3.41612059  T        0
O        9.61157419      15.76489726       6.11779608  T        0
O       14.83076737      18.20050108       8.83498843  T        0
O       12.13774595      20.92580333       3.76192224  T        0
O       15.60912885      21.02305455      -0.14841001  T        0
O       11.46672112      13.92331947       1.86534776  T        0
O       14.05935221      11.39882157       1.82671758  T        0
O       13.14836073      20.13980908       8.08171249  T        0
O       10.32488005      17.41437370       8.11757161  T        0
O       10.07902338      20.46889813       5.43545005  T        0
O       16.65831860      19.28532855       1.64829021  T        0
O       10.34872218      10.16402556       0.94169586  T        0
O       11.46615214      16.44223614       4.33020807  T        0
O       14.12887124      18.84977842       4.32491064  T        0
O       14.10071800      16.48642687       6.91263058  T        0
O       16.67289190      11.26449802       4.38646052  T        0
O       16.67346988      13.90776409       7.04052224  T        0
O       12.11933474      11.97336673       3.52858926  T        0
O       12.21782336      21.80350056       6.28092709  T        0
O       12.28767893      18.24355510       9.69729675  T        0
O        8.73216120      18.30929645       6.23577600  T        0
O       18.26164195      18.19464798       3.53401504  T        0
O       12.29070589       8.61267633       0.03716450  T        0
O        8.75943542      12.02193322       0.08266807  T        0
O       12.13171610      14.83218628       6.28756507  T        0
O       12.15250692      18.21344426       2.70002158  T        0
O       15.80745884      18.42921875       6.33138255  T        0
O       18.29723781      15.80797642       6.00809823  T        0
O       18.30826947      12.27266527       2.48371747  T        0
O       14.98961870      12.02882915       6.26716160  T        0
O       10.20908296      16.51314872       1.93382814  T        0
O       14.10240851      10.42705886       4.31851209  T        0
O       14.16661143      22.63959227       7.95069329  T        0
O       10.50962627      16.44013194      10.63124544  T        0
O        7.64276310      19.93128310       4.40288375  T        0
O       10.60947672      22.96157284       4.53013153  T        0
O       16.55023842      19.99291204       4.25718906  T        0
O       16.57944131      10.43172389       1.84805364  T        0
O       10.50951493      13.92628546       4.38261132  T        0
O        7.81821262      16.37661929       7.90266211  T        0
O       14.09573395      20.00880514      10.62557537  T        0
O       14.07289192      20.06569810       1.71578341  T        0
O        7.85498755      10.31824432       1.99488032  T        0
O       16.60747653      16.43161061       7.90062071  T        0
O       14.08957256      13.98178350       7.84973626  T        0
O       10.54193307       7.61528208       1.82397456  T        0
Al      10.68479141      15.23213294       0.86839439  T        0
Si      13.14067929      10.79521877       3.06409607  T        0
Si      13.56270514      21.37334983       7.08555390  T        0
Si      11.34457595      16.96755487       9.31826187  T        0
Si       9.04750788      19.29716429       4.96913344  T        0
Si      17.53567927      19.57010351       3.00183731  T        0
Si      15.31114683      10.82982102       0.90582170  T        0
Si      10.91714080      12.98790478       3.10333673  T        0
Si       9.11574249      16.98491106       7.10398518  T        0
Si      13.58597266      19.16386141       9.31345457  T        0
Si      11.26818123      21.52036031       4.97283472  T        0
Si      15.31276774      19.69305382       0.78345993  T        0
Si       9.13212546      11.15713124       1.39669510  T        0
Si      10.90593745      15.21455789       5.29552254  T        0
Al      13.07907923      19.67978515       3.05944895  T        0
Si      15.35347967      17.39803795       7.50695054  T        0
Si      17.57787790      10.92218732       3.06198160  T        0
Si      15.36697700      13.03362188       7.49448594  T        0
Si      11.36315509       8.95286990       1.34082690  T        0
Si      15.37173051      10.80118405       5.26544781  T        0
Si      17.59100395      15.22782954       7.36984098  T        0
Si      15.32238908      19.54750932       5.24383231  T        0
Si      10.79309669      17.41841641       3.11291725  T        0
Si      13.15480958      15.25967370       7.48180882  T        0
O       14.69003189      12.26720489      -2.57942038  T        0
O       15.73826235      18.20272726      -2.80379616  T        0
O       12.21591879      14.61752220      -2.53699210  T        0
O       18.59771183      15.59623701      -2.52484860  T        0
O       14.10249016      14.04053357      -0.63434264  T        0
O       16.62243418      16.50513097      -0.91036201  T        0
O       13.07686747      10.23952993      -1.89260576  T        0
O       10.13666701      12.91830137      -2.03011701  T        0
O       12.20300800      15.60221931      -0.01650331  T        0
O       15.72908363      12.04180614      -0.10470254  T        0
O       18.35409181      14.64956186       0.02335027  T        0
O       14.96717500      18.40635282      -0.18525768  T        0
O       12.18942093      12.14605468      -3.50546108  T        0
O       16.56891984      13.98319993      -1.74578121  T        0
O       14.07935076      10.44103311      -4.40882730  T        0
O        7.48779220      13.42039280      -1.61817244  T        0
O       14.06700338      16.45448917      -1.79224913  T        0
O       10.48857737      14.03071489      -4.45666056  T        0
O       14.11783175       7.73934294      -1.75442766  T        0
Si      15.30814321      13.05966095      -1.29408014  T        0
Si      15.35283012      17.41592529      -1.40699957  T        0
Si      13.10066825      15.23155982      -1.31861867  T        0
Si      17.56311223      15.22255721      -1.29467088  T        0
Si      13.56104856       9.02586708      -0.90077831  T        0
Si      11.23366530      13.41849566      -3.12290447  T        0
Si       8.96975463      13.29044104      -0.92200131  T        0
Si      13.49845584      11.25413109      -3.10500255  T        0
H       16.48559112       9.33840607       6.62628668  F        0
H       18.82464116      14.01032609       8.95915608  F        0
H       18.82463422      21.15752504       1.81198193  F        0
H       16.48560162      11.67124930       8.95913012  F        0
H       18.82463962       9.33839646       4.28720704  F        0
H       16.48550522      21.15749796      -0.52720744  F        0
H       19.09683476      17.79487503       3.24462109  F        0
H       19.09684364      15.44301376       5.59651532  F        0
H       19.09682945      12.70103459       2.85456062  F        0
H       13.68673605      23.15239550       8.63276462  F        0
H        9.66477675      16.80915558      10.95402362  F        0
H        7.34351903      20.83116256       4.61081863  F        0
H        9.66481601      23.15243056       4.61081458  F        0
H        7.34350493      16.80917637       8.63275504  F        0
H       13.68672539      20.83112809      10.95404502  F        0
H        7.34352333       9.66479174       1.48837704  F        0
H        9.66479163       7.34352337       1.48837704  F        0
H       16.48557283      18.82464187      -2.86023677  F        0
H       18.82464171      16.48557294      -2.86023676  F        0
H       19.09678362      15.05286173       0.50248505  F        0
H       13.68673308       9.66480596      -4.85513656  F        0
H        7.34352146      13.68671965      -2.53387758  F        0
H        9.66480591      13.68673318      -4.85513656  F        0
H       13.68671953       7.34352150      -2.53387758  F        0
Fe      13.46371728      14.51341212       1.48659409  T        0
Fe      13.60901837      16.91725090       3.77616370  T        1
O       14.19430472      15.40038044       2.91073899  T        2
