144
Lattice="20.102 0.0 0.0 0.0 19.731 0.0 0.0 0.0 13.253" Properties=species:S:1:pos:R:3:move_mask:L:1:tags:I:1 i=77 E=-3472.0240129048 regions="_JSON [\"Active\"]" n_terminators=32 energy=-981.7674922036401 pbc="F F F"
O       10.16690318       8.64805938       9.45166866  T        0
O        9.96738691      18.66546117       4.10390443  T        0
O        9.95321834      11.28372069       4.12020366  T        0
O        2.07196096      11.22524848       4.03419660  T        0
O        7.72740232       8.79679831      10.49772783  T        0
O       12.11119732      18.54534980       2.52773594  T        0
O       12.10397635      10.84481631       2.57262685  T        0
O        8.18885717       7.17959195       8.41694998  T        0
O       12.19927897      17.50559282       5.00553790  T        0
O       12.13377504      12.60320251       4.62220158  T        0
O        8.19313921       9.82486607       8.09199719  T        0
O       12.17359618      20.16919794       4.62253178  T        0
O       12.11575440      10.00368222       5.14605386  T        0
O        3.43798814      10.79606925       6.22487295  T        0
O        6.65411152       8.91644421      12.86032352  T        0
O        3.37702158       8.90140544       4.32623914  T        0
O        6.27239353      10.96508115      11.10559794  T        0
O        4.81077346      11.14559025       4.02126958  T        0
O        5.05764498       8.67554285      10.68346771  T        0
O        3.88664866      12.49753530       8.21408590  T        0
O        6.06867946       7.31516758       1.30074261  T        0
O       14.05754225      17.14322374      12.12486697  T        0
O       14.74469022      12.33467917      11.71439815  T        0
O        5.84198386      10.85537149       7.41286524  T        0
O        3.84011400       8.30992721       0.23153365  T        0
O        5.81306010      19.32788852       7.49898323  T        0
O       14.22361475       8.97695784       6.50439625  T        0
O        3.74052969       9.90211143       8.70219810  T        0
O        5.24939365       9.85622193       1.81723195  T        0
O        8.01852062      12.47618030       7.63133630  T        0
O        7.86237677      17.69430579       8.07800555  T        0
O       12.43662716       7.36692572       5.17890511  T        0
O        7.89583206      10.90369235       5.67235878  T        0
O        7.88309492      18.95317614       5.74726706  T        0
O       11.87823800       8.64484647       7.44772811  T        0
O        7.28959356      11.13845694       2.96183905  T        0
O        2.47954076       8.09903777      10.21038542  T        0
O        7.51727547      18.17618196       3.21907649  T        0
O       12.79604424       9.04021552      10.02597979  T        0
O        8.68376057       8.68609411       3.86814864  T        0
O       11.36757657      10.88496411       8.78374711  T        0
O       11.85329242      19.09702429       8.67081310  T        0
O        5.19449509      12.57560192       1.91637799  T        0
O        4.33183718       7.28851368       8.54749003  T        0
O       10.05812639      17.25878045       9.58275462  T        0
O       10.43813764      13.40631716       8.67569854  T        0
O       10.19866525       6.49172848       3.83658904  T        0
O        7.71464873      16.90747373      10.65955266  T        0
O        2.33245006       6.46552958       3.82209738  T        0
O        7.88962197      13.00318755      10.43443858  T        0
O       12.51086901       6.59486367       2.61320500  T        0
O        8.60340345      15.23488577       8.64467698  T        0
O       12.13018091       4.81910794       4.66252066  T        0
O        3.70162836       6.84563384       5.99704870  T        0
O        6.60142760      13.12318160      12.71234971  T        0
O        5.01784957       6.91469261       3.69348445  T        0
O        5.22914250      13.30535514      10.40777002  T        0
O       15.27525064      13.24067605       9.20097349  T        0
O       15.45982612      17.09720515       9.92755132  T        0
O        4.14359024       4.82099608       7.75281173  T        0
O        6.15138273       6.39348603       6.83487871  T        0
O       14.42749304      13.56795894       5.54138818  T        0
O       14.13122010      16.72451381       6.75081497  T        0
O        8.18744460       4.74154635       7.44710278  T        0
O       12.21960830      14.96039195       5.84494224  T        0
O        8.50554318       6.86895734       5.79903401  T        0
O       12.56692253      12.72699890       7.27928947  T        0
O       11.55070494      16.74563299       7.48783079  T        0
O        7.59086870       6.32123479       3.33142129  T        0
O        2.64745676      12.82494139      10.60327289  T        0
O       12.72624537      12.81491442       9.95412755  T        0
O       12.71783120      16.80642141       9.83298512  T        0
O        3.50366888      14.94468624       9.13488614  T        0
O        5.74980220       4.80440401       2.15591708  T        0
O       14.16328477      14.84886099      10.87576140  T        0
Si       8.56310472       8.60592643       9.11498874  T        0
Si      11.59267215      18.72814023       4.07326097  T        0
Si      11.58216991      11.14269777       4.10242542  T        0
Si       3.43506088      10.50775996       4.61685936  T        0
Si       6.41123964       9.35040597      11.29511031  T        0
Si       4.23073844      11.01585188       7.62428592  T        0
Si       5.38687682       8.68915865       0.70313041  T        0
Si       7.44367288      10.98628909       7.24768242  T        0
Si       7.43181532      19.06844603       7.29738012  T        0
Si      12.66224731       8.73719609       6.02396091  T        0
Al       8.40196773      10.35539982       4.03590540  T        0
Si       8.40115334      19.14608964       4.20457356  T        0
Si      11.58621429       9.26788005       8.92896988  T        0
Si       5.70833790      11.18991475       2.64936552  T        0
Si       3.91587293       8.50577526       9.53000298  T        0
Si       8.51641488      16.75669536       9.23875866  T        0
Al       8.65290565      13.45968664       8.96742606  T        0
Si      11.79946960       6.32405166       4.07668071  T        0
Si       3.61515271       7.29319996       4.43302827  T        0
Si       6.51012550      12.58321287      11.15888252  T        0
Si       4.58145671       6.32852234       7.26796370  T        0
Si       7.75265255       6.29640160       7.11709485  T        0
Si      12.81699385      13.42026315       5.82904068  T        0
Si      12.59770343      16.51592686       6.20358344  T        0
Si       8.73160984       7.12091579       4.20007165  T        0
Si      11.76543973      12.45047806       8.69223709  T        0
Si      11.54805677      17.51383423       8.97895527  T        0
Si       6.11395338       6.34308009       2.62837973  T        0
Si       3.82407911      13.38928580       9.58933938  T        0
Si      14.20937259      13.27059287      10.47193274  T        0
Si      14.11818010      16.46027332      10.63442613  T        0
O        8.25403984      20.37496843       7.87546166  T        0
O        8.16910342      20.68493554       3.67410649  T        0
O        6.32053083       9.38539344      -0.45670436  T        0
H        1.81269882      11.30123319       3.09859993  F        0
H       13.03074803      18.74401529       2.26762503  F        0
H       13.03074804      10.85204106       2.26762503  F        0
H       12.34310542      20.30287261       5.56688324  F        0
H        6.01931354       8.91222751      13.59787507  F        0
H       14.40563884      18.04556895      12.19637069  F        0
H       14.40563885      11.55048737      12.19637067  F        0
H        3.12887899       8.92429365       0.49683426  F        0
H        5.06295559      18.75104696       7.26028496  F        0
H       15.03932990       8.88569483       5.99268334  F        0
H        1.92726146       8.79770260      10.59110356  F        0
H        6.55301950      18.28668004       3.13509397  F        0
H       13.54926599       8.42132791      10.11787432  F        0
H       11.52310955      19.83515307       9.21116341  F        0
H        5.53537813      12.95496052       1.09262639  F        0
H        6.74596320      16.92620537      10.74076342  F        0
H        2.04924741       6.48050321       2.89306910  F        0
H       13.35632228       7.06085325       2.51220488  F        0
H       11.61525895       4.01919395       4.45233654  F        0
H        5.86807409      12.98161584      13.33116226  F        0
H       15.75661379      12.42699387       9.00459924  F        0
H       15.75661380      17.16906248       9.00459925  F        0
H        4.37526294       4.01828352       7.26036481  F        0
H       14.91456245      13.24933472       6.30897701  F        0
H       14.91456244      16.34672163       6.30897701  F        0
H        7.92514400       4.01763560       6.85279547  F        0
H        1.73086689      12.60761804      10.35624453  F        0
H        4.05997682      15.72757570       9.28699687  F        0
H        5.99116592       4.00312854       2.66051272  F        0
H        8.32625906      20.60985804       8.81306681  F        0
H        8.66651872      21.47399316       3.93953912  F        0
H        6.58577874       9.14969547      -1.35751146  F        0
Fe      10.16624685      15.03059696       7.12603187  T        0
Fe       8.95103462      12.66646224       5.52050942  T        1
O        9.33754192      14.43379304       5.61395414  T        2
