144
Lattice="20.102 0.0 0.0 0.0 19.731 0.0 0.0 0.0 13.253" Properties=species:S:1:pos:R:3:move_mask:L:1:tags:I:1 i=77 E=-3472.0240129048 regions="_JSON [\"Active\"]" n_terminators=36 energy=-961.1611796480355 pbc="F F F"
O       10.09400891       8.22197932       9.38084986  T        0
O       18.00755664       8.48530546       9.22134438  T        0
O       11.84253207      16.85512601       4.77101740  T        0
O       11.66771507      12.70869951       4.84040332  T        0
O       16.70305925       8.96356933       7.02589792  T        0
O        6.44740742      18.99581822      11.22336994  T        0
O        6.90251858      10.69521877      10.76084494  T        0
O       16.63612928      10.77769845       9.07491051  T        0
O       16.39613304      18.90096975       8.80601747  T        0
O       15.29243643       8.50151065       9.30976876  T        0
O       14.43996501      17.40002128      12.02071148  T        0
O       14.29154615      12.15706719      11.91904499  T        0
O        5.70544376      19.17944386       6.66871162  T        0
O       16.17864201      19.25571624      13.05912558  T        0
O       16.14291975      10.62380475      13.21952457  T        0
O       14.10568564      19.98000595      11.49097933  T        0
O       14.27115866       9.56424174      11.53045346  T        0
O        7.86084099      12.43049796       7.49868507  T        0
O        7.72957695      17.53531699       7.37981947  T        0
O        8.09507791      19.58054218       5.58623097  T        0
O       11.52972393       8.74033097       7.21574146  T        0
O       12.69937616       8.38510561       9.67868328  T        0
O       11.35609157      10.60264356       9.19961648  T        0
O       11.62681280      18.94945868       9.21370047  T        0
O       16.19706773      17.06103010       4.54808027  T        0
O       14.27264298       6.90170826      11.23786155  T        0
O       16.28899171      12.47480548       4.57851202  T        0
O        9.86661196      16.92958447       9.39368569  T        0
O        9.88002033      12.84468497       9.28282059  T        0
O        7.37588867      16.70933843      10.25174850  T        0
O        7.37193023      13.12530015      10.12934642  T        0
O       17.63777431      13.28525562       9.48286687  T        0
O       17.96817257      16.93769850       9.58870078  T        0
O        8.33632503      14.82767424       8.36045836  T        0
O        5.92723573      16.66980015      12.44572302  T        0
O        6.00104516      12.77863578      12.38071346  T        0
O       16.44619370      12.71725172       7.23756920  T        0
O       16.63845326      16.82866002       7.19435619  T        0
O        4.74878964      17.41580176      10.07424572  T        0
O        4.80447415      12.19966070      10.04055943  T        0
O       14.96873449      12.81458811       9.42234187  T        0
O       15.28648300      16.52550216       9.42280267  T        0
O       15.70925558      14.78814796       5.74453330  T        0
O       14.07033943      12.67589729       6.05393891  T        0
O       14.11310032      16.87894969       6.26439261  T        0
O       12.43164828      14.79117812       6.22959302  T        0
O       11.88931038      12.55455955       7.51694467  T        0
O       11.72764340      17.00513986       7.45676715  T        0
O       12.36039255      12.90452705      10.13448700  T        0
O       12.40231758      16.52903501      10.03686900  T        0
O       13.87127796      14.65879177      11.13473869  T        0
Si      16.62793862       9.18177888       8.65136506  T        0
Si      14.62262386      18.89160749      12.60202670  T        0
Si      14.60731518      10.71304239      12.62635811  T        0
Si       7.33253835      19.04309795       6.94355068  T        0
Si      11.43577798       9.00135814       8.84496121  T        0
Si      14.13547681       8.34257819      10.45576319  T        0
Al       8.27752656      16.52293789       8.64004023  T        0
Si       8.34894462      13.29175503       8.81065700  T        0
Si       6.10384883      17.44157454      11.01461902  T        0
Si       6.24246163      12.20059824      10.86480681  T        0
Si      16.44224089      12.37658323       8.81990719  T        0
Si      16.56145176      17.27366578       8.78210237  T        0
Si      15.62584886      13.17852065       5.90309313  T        0
Si      15.66463673      16.40383622       5.95691021  T        0
Si      12.52234350      13.18359375       6.15466697  T        0
Si      12.54830093      16.40522514       6.18469292  T        0
Si      11.34104268      12.20341046       8.99334387  T        0
Si      11.41147902      17.36035133       9.01640552  T        0
Si      13.95878262      13.10332124      10.64639037  T        0
Al      14.10863028      16.39654984      10.65585788  T        0
O       13.95841976      20.75982108      16.07153148  T        0
O        9.99658661      21.05577608       9.28686378  T        0
O        7.65156583      21.23947235      10.50287812  T        0
O       17.99948105      21.06552583       9.22656643  T        0
O        8.09923873      22.75361558       8.38571399  T        0
O        7.76613168      20.07799152       8.13391609  T        0
O        6.59849172      21.06310916      12.91391027  T        0
O       16.57949285      20.98413600       7.06046233  T        0
O        4.92401014      21.20378775      10.87524436  T        0
O       15.30618624      21.20630790       9.44532794  T        0
O       11.49504246      20.78902192       7.19366670  T        0
O       12.66298368      21.29529166       9.62835034  T        0
O       14.06056972      22.67895221      11.34238118  T        0
Si       8.39216364      21.27551216       9.04027354  T        0
Si       6.39648577      20.63285198      11.34214859  T        0
Si      16.55714847      20.51567568       8.64466779  T        0
Si      11.46831370      20.53218219       8.82314061  T        0
Si      14.05469985      21.26652574      10.49412648  T        0
O       12.08827418      18.73622243      15.94456664  T        0
O       12.08242651      10.82566069      15.96265841  T        0
O       13.72957827      19.12840052      13.95255606  T        0
O       13.67349032      10.52233177      13.93797176  T        0
O       14.01537886       8.84577225      16.01471773  T        0
O       14.63404134      18.20766027      16.39635987  T        0
O       14.63789765      11.39955659      16.37511258  T        0
O        6.08001098      12.18108451      14.93139017  T        0
O        6.05845795      17.21628435      15.06530414  T        0
O        5.50005776      14.72449434      14.14608767  T        0
O        3.67334605      16.74309742      13.96833918  T        0
O        3.69344198      12.73623553      13.83757005  T        0
Si      13.62004920      19.21587710      15.57627944  T        0
Si      13.61768680      10.38862058      15.57384359  T        0
Si       5.27523803      16.33288477      13.92568329  T        0
Si       5.30480058      13.11711137      13.83003042  T        0
H        9.15542084       8.42972578       9.21208484  F        0
H       18.28958667       8.42947104      10.15436836  F        0
H       11.77741499      17.76721957       4.45015374  F        0
H       11.77741500      11.82883679       4.45015372  F        0
H       16.07044731       8.91222497       6.28158540  F        0
H        6.59189033       9.81912404      11.03827922  F        0
H        5.06295559      18.75104696       7.26028496  F        0
H       16.97340650      18.78964577      12.75613404  F        0
H       16.97340651      10.80641058      12.75613404  F        0
H        7.69777211      11.47779022       7.44841170  F        0
H        8.50665683      19.01129957       4.91774358  F        0
H       12.20788617       8.97653229       6.55602501  F        0
H       15.87290964      17.87210703       4.12309272  F        0
H       14.56690736       6.77574372      12.16034191  F        0
H       15.87290964      11.72394929       4.12309273  F        0
H       18.05303808      13.25020103      10.35989921  F        0
H       18.05303809      16.34585533      10.35989921  F        0
H        4.26454119      16.60174699       9.87579966  F        0
H        4.26454119      12.99430937       9.87579967  F        0
H       13.65226955      21.53630200      15.57301841  F        0
H       18.28958667      21.16688107      10.15436837  F        0
H        7.84356087      22.87259074       7.45668424  F        0
H        6.01931354      20.68412461      13.59787507  F        0
H       16.07044730      20.68412712       6.28158542  F        0
H        4.52133035      21.07133226      10.00226603  F        0
H       12.20788616      20.61981982       6.55602502  F        0
H       14.56690736      22.82060840      12.16034191  F        0
H       11.86384156      18.29482316      16.78088422  F        0
H       11.86384157      11.30123319      16.78088421  F        0
H       13.65226955       8.06005012      15.57301841  F        0
H       15.58095514      18.39037197      16.50370227  F        0
H       15.58095515      11.20568437      16.50370227  F        0
H        5.82176689      11.72394931      15.75639142  F        0
H        5.82176689      17.87210706      15.75639142  F        0
H        2.98936131      16.34896307      13.39901228  F        0
H        2.98936131      13.24709329      13.39901228  F        0
Fe       9.01953381      16.11998289      11.24488826  T        0
Fe      11.73045949      14.81054744      11.10584062  T        0
O       10.24591637      15.14023340      12.12294710  T        0
