142
Lattice="20.102 0.0 0.0 0.0 19.731 0.0 0.0 0.0 13.253" Properties=species:S:1:pos:R:3:move_mask:L:1:tags:I:1 i=77 E=-3472.0240129048 regions="_JSON [\"Active\"]" n_terminators=30 energy=-979.0369636214763 pbc="F F F"
O       10.10293757       8.80105500       9.49553177  T        0
O       10.26091439      10.78512825       3.80936022  T        0
O        2.34914628      10.89396805       3.48075476  T        0
O        7.61304432       9.12653579      10.38485284  T        0
O       12.72887008      11.48059354       2.95358753  T        0
O        8.24306327       2.92054525       8.74631719  T        0
O        1.94887191      12.64279426       1.55633850  T        0
O        8.03962137       7.49830697       8.33989623  T        0
O       11.66544560      12.50259628       5.20465025  T        0
O        1.53588603       9.98833334       1.10904200  T        0
O        8.44028785      10.14692523       8.03714376  T        0
O       12.41265193       9.85842814       5.05792499  T        0
O        3.67370289      11.17282891       6.06934135  T        0
O        6.46674900       8.68524188      12.75923014  T        0
O        4.11612749       8.80649417       4.43571649  T        0
O        6.03011052      11.00635766      11.50250761  T        0
O        3.05328875       0.80088481       4.17546411  T        0
O        5.33448146      10.97218024       3.70987828  T        0
O        4.96805000       8.71439728      10.54034216  T        0
O        6.50481285       2.09591953       1.39756137  T        0
O        4.69484730      12.58063455       8.20908385  T        0
O        5.85772887       6.96574938       1.20070761  T        0
O        6.11214152      10.77888147       6.99367187  T        0
O        3.91118275       8.76092892       0.83184890  T        0
O       14.31979472       8.83887919       6.64263723  T        0
O        3.98714176      10.00165343       8.43954498  T        0
O        6.22895428       9.55019920       1.77513273  T        0
O        2.06468331       2.54088285       0.92559890  T        0
O        7.95343414      12.73777028       7.58693401  T        0
O        1.66709170       7.33070819       0.96019999  T        0
O       12.45233332       7.22757980       5.51489816  T        0
O       12.64673503       2.49394755       5.47064002  T        0
O        8.28089186      11.18002898       5.54910113  T        0
O       11.85351735       8.94494180       7.50110582  T        0
O        7.80812477      11.37373671       2.89628834  T        0
O        2.35710171       8.35875031       9.84687129  T        0
O       12.58992128       8.29985458      10.03844551  T        0
O        8.16593847       9.02792292       4.02593686  T        0
O        8.50052513       0.58082485       4.72903410  T        0
O       11.97267425      10.81376480       9.47335700  T        0
O        3.80606037       2.36004439       8.41587499  T        0
O        5.78746150      12.21511097       1.30623782  T        0
O        4.14600014       7.32594011       8.38782858  T        0
O        0.07066510       6.92832316       3.12092890  T        0
O        0.21146597       2.61353939       2.98911194  T        0
O       10.30505415       2.52957943       4.13894629  T        0
O       10.54400565       7.08948947       3.68934493  T        0
O        2.65152678       6.72092016       3.35930371  T        0
O        2.67558247       3.25384601       3.48854731  T        0
O       12.41909961       2.87495046       2.75196481  T        0
O       13.09513786       6.30555286       3.05480150  T        0
O        1.34242178       4.86890609       1.90710087  T        0
O       11.70917371       4.79474806       4.58817845  T        0
O        3.58898759       6.60010838       5.83622338  T        0
O        3.76043862       2.86234563       5.86831835  T        0
O        5.31774739       6.75280505       3.76092356  T        0
O        5.18708099       2.38674329       3.70274788  T        0
O        5.83334932      14.81767237       0.98645983  T        0
O        4.44913014       4.83292479       7.57283976  T        0
O        6.06206663       6.86737772       6.65176029  T        0
O        3.84638128      13.36884192      -0.15877681  T        0
O        6.13501494       2.87343739       7.07986902  T        0
O        1.65320984      14.89010847       0.00141687  T        0
O        7.75737642       5.02699799       7.41531522  T        0
O        8.56452949       6.96147722       5.77486158  T        0
O        8.54913685       2.81482873       6.07848647  T        0
O        7.79024892       6.50843408       3.00925422  T        0
O        7.78694441       2.93538568       3.52851813  T        0
O        6.01895027       4.55892696       2.37079722  T        0
Si       1.42571337      11.22354463       2.20713688  T        0
Si       8.53629229       8.86832221       9.05877987  T        0
Si      11.80014415      11.14916977       4.27945792  T        0
Al       3.73274813      10.58861365       4.44334593  T        0
Si       6.26858016       9.38497070      11.28246491  T        0
Si       4.55944377      11.14102622       7.41312586  T        0
Si       5.50832423       8.48505596       0.71980590  T        0
Si       7.68294870      11.20681812       7.06168338  T        0
Si       2.32536964       8.74017483       0.43427211  T        0
Si      12.74625277       8.69359512       6.16351793  T        0
Si       8.67492719      10.61360699       4.08210692  T        0
Si      11.62829521       9.23942294       9.09960827  T        0
Si       6.26857508      11.11960942       2.38478379  T        0
Si       3.88354862       8.63403296       9.31751936  T        0
Si       1.41949756       6.44802895       2.31487954  T        0
Si       1.54727895       3.28979783       2.30964644  T        0
Si      11.79306022       3.19716991       4.24100579  T        0
Si      11.90620491       6.38018644       4.20249092  T        0
Si       3.82336464       7.18947305       4.34887807  T        0
Si       3.68770468       2.31114642       4.34065437  T        0
Si       4.57092352       6.39533003       7.14241488  T        0
Si       5.42349386      13.41023419       0.24170416  T        0
Si       4.55312018       3.23348735       7.24537426  T        0
Si       7.65104272       6.60004906       7.02825892  T        0
Si       2.22771284      13.34614829       0.11680302  T        0
Si       7.66530243       3.42390356       7.29816437  T        0
Al       8.88294425       7.31457555       4.11170314  T        0
Si       8.78705513       2.20086148       4.59186969  T        0
Si       6.30776191       6.14336458       2.55307346  T        0
Si       6.36389588       3.00243101       2.76088404  T        0
O        7.95954825       8.47190436      -2.59878360  T        0
O        6.06027494       8.70977114      -0.77537802  T        0
O        6.73436655      10.80080524      -2.23899754  T        0
O        5.45568950       8.71121143      -3.42557762  T        0
O        2.29636055       8.78744000      -1.21169538  T        0
O        7.04809062      13.08079127      -3.71154329  T        0
O        6.28709049      13.18205972      -1.12856643  T        0
O        4.66764568      12.17264225      -3.06644771  T        0
O        1.39158160      12.38343759      -0.91734544  T        0
Si       6.51586073       9.17962309      -2.26687536  T        0
Si       6.21414140      12.31040895      -2.52346805  T        0
O       -0.15166427      11.48501790       2.59686952  T        0
H       13.03074804      10.85204106       2.26762503  F        0
H        8.32487049       1.96348467       8.80281458  F        0
H       12.25872463      13.00694285       5.79628406  F        0
H        6.01931354       8.91222751      13.59787507  F        0
H        6.45001595      11.67065412      10.93294989  F        0
H        3.45924363      -0.04624542       4.41174334  F        0
H        5.69664664       1.68513527       1.05659762  F        0
H        4.03182275      12.92715973       8.82439874  F        0
H       15.03932990       8.88569483       5.99268334  F        0
H        2.35337064       1.61243811       0.82192755  F        0
H        8.21123678      12.90527891       8.50458507  F        0
H       12.40451338       1.61243810       5.80455660  F        0
H        1.92726146       8.79770260      10.59110356  F        0
H       13.54926599       8.42132791      10.11787432  F        0
H        8.57917594      -0.10444883       4.04180490  F        0
H       11.43576677      11.60834527       9.31342917  F        0
H        4.22937586       1.85859719       9.12987557  F        0
H       -0.70903753       7.30425969       2.68512250  F        0
H       -0.70903753       2.56109242       2.68512249  F        0
H       13.35632229       2.80449888       2.51220488  F        0
H       13.35632228       7.06085325       2.51220488  F        0
H        5.67587981      15.71242072       0.63388066  F        0
H        2.12599875      15.71306863       0.22631132  F        0
H        8.23844393       8.42947104      -3.52791591  F        0
H        4.52133035       8.52501985      -3.25073397  F        0
H        1.54448592       9.14594745      -1.70877228  F        0
H        8.00189534      13.25020102      -3.73344676  F        0
H        4.26454119      12.99430937      -3.37720033  F        0
H        1.43221285      12.31405055      -1.87911103  F        0
H       -0.90389482      10.88061926       2.50078840  F        0
Fe       6.13556256       8.84574081       4.03639342  T        1
