136
Lattice="20.102 0.0 0.0 0.0 19.731 0.0 0.0 0.0 13.253" Properties=species:S:1:pos:R:3:move_mask:L:1:tags:I:1 i=77 E=-3472.0240129048 regions="_JSON [\"Active\"]" n_terminators=30 energy=-931.1878502907382 pbc="F F F"
O       10.14047271       8.66503295       9.11588252  T        0
O        0.04974687       8.30322660      10.46428521  T        0
O        7.81686263       8.59962320      10.42608585  T        0
O        8.17764192       6.93921348       8.35059957  T        0
O       11.71179161      17.62445759       5.40777508  T        0
O       11.90730881      12.78868529       4.47377379  T        0
O        7.94362475       9.54822633       7.90025650  T        0
O        3.56743873      10.22896370       6.16385444  T        0
O        6.61170761       8.70881836      12.83838807  T        0
O        3.46180725      19.36679836       6.17216645  T        0
O        6.40279699      19.07239308      11.04870037  T        0
O        6.24802147      10.66635645      11.01361153  T        0
O        5.16233512       8.28543281      10.58709057  T        0
O        4.06362641      12.30070420       7.90192190  T        0
O        4.12483269      17.40940752       7.92951607  T        0
O        6.07778504      10.99947448       6.73689542  T        0
O        6.03246462      18.85865017       6.79022318  T        0
O        4.51087108       9.73467141       8.50642461  T        0
O        4.32671744      19.97199217       8.55603824  T        0
O        8.11125763      12.20803064       8.00539116  T        0
O        8.08833946      17.34084595       7.57653037  T        0
O        8.62124147      11.05423334       5.75864409  T        0
O        1.55440173       8.65212473      12.62825961  T        0
O        8.45517843      19.42180640       5.79343143  T        0
O       12.30376821       8.59843635       7.44670747  T        0
O        2.60314771       8.69374700      10.09984084  T        0
O       12.57701161       8.50529992      10.08562567  T        0
O        1.45712939      18.98560710      10.89118687  T        0
O        1.08832176      10.74338994      10.95612884  T        0
O       11.73926850      10.80160646       8.93523494  T        0
O       11.54102564      19.00452341       8.89720988  T        0
O        3.95801117       7.07263745       8.46888897  T        0
O       10.14351059      16.82718644       9.57425613  T        0
O       10.32891410      13.02036184       9.29913420  T        0
O        7.12969976      16.64735972      10.16279589  T        0
O        8.02137600      12.66865750      10.62847526  T        0
O        8.21238754      14.68388987       8.92443364  T        0
O        6.22506228      16.97768254      12.65895857  T        0
O        6.36839667      12.67251301      12.74542601  T        0
O        4.59070897      17.15485681      10.56430857  T        0
O        5.47306715      13.11377928      10.24931507  T        0
O       14.20914595      12.95628740       5.71483848  T        0
O       14.20919605      16.97517090       6.08256818  T        0
O       12.41997894      15.00688229       5.75065612  T        0
O        1.59449042      16.63829175      12.15045842  T        0
O        1.33709148      12.73001619      12.67403038  T        0
O       11.89208622      12.76028013       7.13826986  T        0
O       12.11884873      16.64127928       7.79321816  T        0
O        2.13439286      16.75086086       9.60009931  T        0
O        2.49834846      12.93840849      10.28994687  T        0
O       13.04379693      13.17287645       9.38961133  T        0
O       12.71871850      17.15271773      10.35063618  T        0
O        4.20098169      15.02394777       9.07842130  T        0
Si       8.52602690       8.43931741       8.94651488  T        0
Si       6.45195359       9.05003431      11.22820875  T        0
Si       4.53792414      10.86599810       7.33062777  T        0
Si       4.50600484      18.90258185       7.35140251  T        0
Si       7.66334319      10.93255656       7.09263873  T        0
Si       7.65153236      18.82596396       7.10487882  T        0
Si       1.34592305       9.12989521      11.05424981  T        0
Si      11.68270117       9.16092945       8.86944411  T        0
Si       4.04931930       8.44076862       9.38228664  T        0
Al       8.55811438      16.48140846       9.01304184  T        0
Si       8.71025358      13.13139728       9.19767273  T        0
Si       6.09616024      17.50377367      11.12203932  T        0
Si       6.52777602      12.24515140      11.18028969  T        0
Si      12.62067007      13.39658118       5.81836576  T        0
Si      12.62106661      16.54846709       6.25668391  T        0
Si       1.17286663      17.39738952      10.77197109  T        0
Si       1.21177899      12.37273279      11.06740034  T        0
Si      11.74260812      12.41513905       8.71852165  T        0
Si      11.60032911      17.39856824       9.15940629  T        0
Si       3.71919686      16.59550907       9.27817152  T        0
Al       3.88586878      13.24114334       9.34193446  T        0
O       10.13952538      21.25335320       9.08063612  T        0
O        0.04813042      21.30437556      10.47236297  T        0
O        7.90183042      21.20331979      10.57926807  T        0
O        7.86800477      22.61848883       8.39459548  T        0
O        7.97055045      19.91023229       8.27978076  T        0
O        6.60245577      21.02819090      12.89279040  T        0
O        5.22570193      21.39809114      10.58595999  T        0
O        1.51267712      20.99065652      12.69218442  T        0
O       12.26716069      21.11875481       7.38943702  T        0
O        2.62632617      21.23144048      10.22088690  T        0
O       12.58015830      21.26225390      10.03349489  T        0
O        3.98020843      22.66188099       8.51463006  T        0
Si       8.50818102      21.24477800       9.04753562  T        0
Si       6.51925355      20.68946707      11.28167130  T        0
Si       1.39969638      20.60691373      11.08915208  T        0
Si      11.64046043      20.62970809       8.83553952  T        0
Si       4.05061167      21.31515017       9.44710947  T        0
O        1.80634119      12.78295594      15.32363435  T        0
O        1.35340829      17.44543187      14.59688805  T        0
O        5.85433490      12.62943786      15.39937909  T        0
O        5.98113301      17.00154382      15.36034779  T        0
O        5.50689507      14.83233494      14.03643557  T        0
O        3.82411091      16.95158009      13.71994636  T        0
O        3.84249493      12.82275554      13.54972781  T        0
O        2.19732976      14.91621928      14.01393942  T        0
Si       5.36646842      16.44418577      13.94646508  T        0
Si       5.38554169      13.21531210      13.94018553  T        0
Si       2.25436660      16.48487426      13.61872815  T        0
Si       2.29551082      13.30904268      13.84931005  T        0
O       -0.10544427      13.13882109      10.42693411  T        0
O       -0.41312668      17.24922106      10.39537845  T        0
H       -0.89571882       8.42972886      10.66739018  F        0
H        7.84356088       6.72376138       7.45668423  F        0
H       11.77741499      17.76721957       4.45015374  F        0
H       11.77741500      11.82883679       4.45015372  F        0
H        3.46536401      10.58100877       5.26900439  F        0
H        6.01931354       8.91222751      13.59787507  F        0
H        3.46536401      19.01504758       5.26900440  F        0
H        8.50665683      10.58475679       4.91774357  F        0
H        2.15673527       8.97653516      13.32343298  F        0
H        8.50665683      19.01129957       4.91774358  F        0
H       12.20788617       8.97653229       6.55602501  F        0
H       13.54926599       8.42132791      10.11787432  F        0
H        4.51576461       6.77574371       7.71911054  F        0
H       14.91456245      13.24933472       6.30897701  F        0
H       14.91456244      16.34672163       6.30897701  F        0
H       13.32025657      13.20375310      10.31771692  F        0
H       13.32025658      16.39230324      10.31771692  F        0
H       -0.89571882      21.16662326      10.66739019  F        0
H        7.84356087      22.87259074       7.45668424  F        0
H        6.01931354      20.68412461      13.59787507  F        0
H        2.15673526      20.61981695      13.32343299  F        0
H       12.20788616      20.61981982       6.55602502  F        0
H       13.54926599      21.17502420      10.11787433  F        0
H        4.51576461      22.82060840       7.71911054  F        0
H        1.72627225      11.82883678      15.42933042  F        0
H        1.72627225      17.76721957      15.42933043  F        0
H        5.82176689      11.72394931      15.75639142  F        0
H        5.82176689      17.87210706      15.75639142  F        0
H       -1.04605969      13.03623234      10.65268580  F        0
H       -1.04605969      16.55982401      10.65268579  F        0
Fe       6.23757001      14.89001098       9.59253798  T        1
