135
Lattice="19.123 0.0 0.0 0.0 14.277 0.0 0.0 0.0 7.5465" Properties=species:S:1:pos:R:3:move_mask:L:1:tags:I:1 i=128 E=-2603.9155142701 regions="_JSON [\"Active\"]" n_terminators=30 energy=-916.8479320790061 pbc="F F F"
O       15.86713648       8.44605064       5.71860534  T        0
O       12.98625885       1.33590938       1.88256311  T        0
O       15.38482976       5.88169646       6.02419625  T        0
O       15.74597620       5.85574232       1.62359137  T        0
O       12.79336714       1.11733960       6.08314722  T        0
O       15.93859456       8.43216415       1.96299621  T        0
O       11.69962297       3.63684214       2.39140122  T        0
O       16.94852299       3.31836161       6.36300639  T        0
O       16.93990721       3.40444677       1.33815830  T        0
O       11.86259209       3.47452974       5.06821524  T        0
O       12.59007147       3.10517371      -0.08918939  T        0
O       16.14487246       4.21298243       3.72995239  T        0
O       14.33336662       3.61965018       1.83125293  T        0
O       14.47242734       3.06172722       5.60819252  T        0
O       11.39175920       8.42437897       3.54471504  T        0
O       17.25674515       1.25984772      -0.03972716  T        0
O       11.70276181       5.84634342       3.85858173  T        0
O        9.54782702       4.16027658       4.02823527  T        0
O       13.39506752       7.50989266       5.15293618  T        0
O       15.50756041       0.10745742       1.39932265  T        0
O       15.23701986       0.15410614       6.51252113  T        0
O       13.56087331       7.20540600       2.48449506  T        0
O       14.43479723       7.43990362      -0.05401396  T        0
O       14.36245342       0.16728858       4.09702796  T        0
Si      12.88235939       2.89381845       1.51885103  T        0
Al      15.76331576       4.32479590       5.44404373  T        0
Si      15.75484141       4.32245722       2.17441381  T        0
Si      12.92133382       2.77003476       6.08253652  T        0
Si      17.59529797       2.89274380      -0.12684978  T        0
Si      11.16967452       4.29021013       3.80661961  T        0
Si      14.70948173       7.34274069       6.14527209  T        0
Al      13.94344971      -0.02468290       2.35862476  T        0
Si      13.81991890      -0.07074553       5.60583055  T        0
Si      14.88075614       7.25133721       1.51755806  T        0
Si      12.53174975       7.25743261       3.77965168  T        0
Si      16.25005621      -0.09321633      -0.06509692  T        0
O       21.69612373       3.17752080       8.94283234  T        0
O       21.36857843       1.30677646       7.06544909  T        0
O       19.25500245       2.87673045       7.75109289  T        0
Si      20.90030251       2.82501601       7.53127955  T        0
O       21.23458919       3.88294417       6.29598396  T        0
O       21.24663476       3.86263676       1.25315195  T        0
O       21.17779029       1.26381555       0.38691735  T        0
O       19.22033736       3.04651225      -0.16144212  T        0
Si      20.87284314       2.84431104       0.00252479  T        0
O       21.66493844       3.17806403      -1.41146759  T        0
O       19.22440343      -3.18840262       7.91067818  T        0
O       19.18523942      -3.27135065      -0.20744324  T        0
O       17.12917540       3.73251610       9.07690119  T        0
O       12.60600258       3.36119344       7.59547859  T        0
O       17.10332470       1.24311256       8.00043138  T        0
O       15.25030806      -0.46414608       9.14837000  T        0
O       14.18604049       7.56866132       7.70728754  T        0
Si      17.61300387       2.81871510       7.77973934  T        0
Si      16.20660403      -0.11540178       7.84977281  T        0
O       15.63993026       8.43479145      -2.31675764  T        0
O       15.49385464       5.87056030      -1.98691676  T        0
O       12.99787331       1.21892233      -1.95957320  T        0
O       16.82503427       3.63905691      -1.33318979  T        0
O       11.53840312       3.37061046      -2.50287883  T        0
O       16.33088123       4.04686727      -3.82889138  T        0
O       14.24870704       3.54198404      -2.16051658  T        0
O       13.15645823       7.22318126      -2.30706282  T        0
O       15.25804570      -0.04587413      -1.33771936  T        0
O       14.53434376       0.00100158      -3.85315915  T        0
Si      15.68380761       4.29024753      -2.33816666  T        0
Si      12.84989186       2.83091644      -1.67564207  T        0
Si      14.68122595       7.26065477      -1.66425002  T        0
Si      13.93090748      -0.07148266      -2.31969576  T        0
O       17.11796745      -3.76601968       9.06622127  T        0
O       12.45943806      -3.42036687       7.66516544  T        0
O       17.15090649      -1.41771223       7.65467376  T        0
Si      17.61494199      -3.00842482       7.69748477  T        0
O       15.94455004      -6.03124719       5.81448989  T        0
O       13.23126278      -1.56602635       2.06565502  T        0
O       13.14771730      -1.49921190       5.92490527  T        0
O       15.95739053      -6.07422888       1.89995708  T        0
O       17.05469347      -3.68617052       6.30498802  T        0
O       11.75779906      -3.78996653       2.43308876  T        0
O       11.88605605      -3.73239874       5.10194680  T        0
O       16.99205955      -3.65306120       1.37842864  T        0
O       16.13731969      -4.18820309       3.83260355  T        0
O       12.63290873      -3.14436885      -0.01483942  T        0
O       14.43025657      -3.81101245       5.85835024  T        0
O       14.33987845      -3.97862678       1.83715287  T        0
O       11.31777197      -6.07141310       3.84335924  T        0
O       17.19086371      -1.41774118      -0.07508987  T        0
O        9.53595749      -4.04194282       4.01010424  T        0
Si      15.88104798      -4.43015055       5.43495767  T        0
Si      12.98184937      -3.07768508       1.59171644  T        0
Si      12.98010571      -3.12132518       6.12936728  T        0
Si      15.84309107      -4.45835655       2.23591614  T        0
Si      11.12116268      -4.42156047       3.81187825  T        0
Si      17.56731858      -3.03116000      -0.03439886  T        0
O       15.71212315      -6.06248062      -2.29031371  T        0
O       13.08369543      -1.43905809      -2.04770358  T        0
O       16.81642344      -3.77817762      -1.28037913  T        0
O       11.55414151      -3.65494129      -2.33864451  T        0
O       16.28835451      -3.94782676      -3.82804303  T        0
O       14.24321476      -3.83533424      -2.03575932  T        0
Si      15.74269752      -4.41198926      -2.34420067  T        0
Si      12.89101593      -3.01751684      -1.61991612  T        0
H       15.75671561       9.37610020       5.45468838  F        0
H       15.75699573       9.38061947       2.07980242  F        0
H       11.31595404       9.37380971       3.76235534  F        0
H        8.59637561       4.20354031       3.76204115  F        0
H       22.00636260       3.98381786       9.40800429  F        0
H       21.68544240       0.51556882       7.54734209  F        0
H       21.98145514       3.97853683       5.66306621  F        0
H       22.00636260       3.98381786       1.86150429  F        0
H       21.68544240       0.51556882       0.00084209  F        0
H       21.98145514       3.97853683      -1.88343379  F        0
H       20.08739461      -2.93488337       7.54749186  F        0
H       20.08739461      -2.93488337       0.00099186  F        0
H       16.24121950       3.98053732       9.41400179  F        0
H       12.76321398       2.97604733       8.47995589  F        0
H       14.43595606      -0.00016978       9.40393244  F        0
H       14.61405599       7.13800201       8.47661577  F        0
H       15.75671561       9.37610020      -2.09181162  F        0
H       11.39412799       3.98861071      -3.24188863  F        0
H       15.92661844       4.15901570      -4.70770176  F        0
H       12.88191441       7.13773895      -3.23957932  F        0
H       14.07160463      -0.00015943      -4.71417255  F        0
H       16.24088130      -3.98173953       9.41338238  F        0
H       12.76333233      -2.97624889       8.47967776  F        0
H       15.17320598      -6.62175386       5.84596239  F        0
H       15.17712900      -6.61799919       1.68693573  F        0
H       12.12595522      -6.62290057       3.76264176  F        0
H        8.59739021      -4.20337067       3.76217937  F        0
H       15.17320598      -6.62175386      -1.70053761  F        0
H       11.39521725      -3.98937216      -3.24237523  F        0
H       15.92569105      -4.16115943      -4.70878458  F        0
Fe      16.90641255       1.40053218       2.25870221  T        0
Fe      16.06165800       1.63749602       5.14280267  T        0
O       17.38284881       1.13873405       3.96893188  T        0
