142
Lattice="20.102 0.0 0.0 0.0 19.731 0.0 0.0 0.0 13.253" Properties=species:S:1:pos:R:3:move_mask:L:1:tags:I:1 i=77 E=-3472.0240129048 regions="_JSON [\"Active\"]" n_terminators=32 energy=-961.7395893570067 pbc="F F F"
O       10.11797718       8.97485251       9.38146677  T        0
O        9.88025605      18.72636109       3.96972989  T        0
O       10.03639383      11.38002081       4.16655671  T        0
O        2.10936483      11.21646002       4.02029395  T        0
O        7.69925794       8.79564407      10.46353310  T        0
O       12.13068292      18.50960128       2.57562467  T        0
O       12.16052825      11.15267461       2.58399761  T        0
O        8.30209824       7.21866607       8.38411802  T        0
O       11.98187152      17.56970780       5.12258662  T        0
O       12.31081046      12.53881464       4.88161510  T        0
O        8.01749493       9.84347864       8.04730311  T        0
O       12.04805765      20.21135226       4.64647984  T        0
O       12.18151094       9.90315786       4.97791434  T        0
O        3.45019449      10.62895148       6.17684311  T        0
O        6.64360770       8.80588402      12.85768238  T        0
O        3.38569822       8.86219282       4.18644182  T        0
O        6.25538175      10.92381056      11.22418168  T        0
O        4.85401578      11.11250490       4.01221768  T        0
O        5.03363192       8.63292430      10.70504745  T        0
O        4.95392679      18.52375994       4.14390508  T        0
O        3.71799229      12.46615262       8.06450240  T        0
O        6.09018905       7.29395351       1.23436764  T        0
O        5.83576381      11.08991381       7.29569484  T        0
O        3.83836316       8.29844715       0.25949483  T        0
O        5.85966946      19.19917428       7.60702205  T        0
O       14.22459051       8.95364435       6.50995093  T        0
O        3.88825801       9.92223617       8.69171603  T        0
O        5.31286926       9.81971570       1.83620403  T        0
O        8.15335762      12.50764938       7.52692680  T        0
O        8.00063974      17.62141947       8.03370649  T        0
O       12.42781809       7.29733925       5.27775867  T        0
O        7.92628373      10.93523411       5.60721843  T        0
O        7.88429812      18.90443805       5.73144085  T        0
O       11.83680620       8.81428988       7.40237608  T        0
O        7.34443005      11.17252633       2.92666272  T        0
O        2.45363209       8.14316669      10.11063814  T        0
O        7.32328455      18.37858937       3.15244671  T        0
O       12.59843793       8.63204871      10.05787908  T        0
O        8.81441972       8.74855984       3.79216954  T        0
O       11.90086216      10.98693155       8.91681816  T        0
O       11.70861597      19.09338198       8.60400642  T        0
O        5.18850519      12.53349965       1.89244488  T        0
O        4.32068554       7.28658415       8.52634808  T        0
O        5.34791385      16.93006313       2.00854942  T        0
O       10.12128201      17.15951786       9.63603732  T        0
O       10.08627379      12.87475616       9.54172469  T        0
O       10.19970442       6.46074410       3.90846532  T        0
O        7.71050434      16.82511963      10.62360361  T        0
O        2.39429648       6.39335223       3.79733910  T        0
O        7.21250076      13.17878736      10.11825058  T        0
O       12.44615951       6.75252006       2.63895681  T        0
O        8.74788659      15.16508353       8.63985588  T        0
O       12.20244643       4.79130234       4.54423936  T        0
O        3.78339643       6.88422958       5.95534631  T        0
O        6.37083187      13.27307724      12.56098176  T        0
O        5.06551756       6.88078913       3.64947212  T        0
O        4.60673220      12.88102731      10.57195906  T        0
O        4.08513584       4.83182228       7.70000436  T        0
O        6.18903178       6.33603372       6.91818307  T        0
O       14.10756701      13.14207641       6.83399810  T        0
O       14.20973101      16.98434738       6.52534742  T        0
O        8.33017100       4.78311762       7.30506149  T        0
O       12.55845594      15.02947415       5.71540570  T        0
O        8.43077893       7.02207230       5.76266784  T        0
O       11.52174477      13.23853758       7.37174871  T        0
O       11.70637552      16.63118034       7.59444673  T        0
O        7.64000357       6.39875258       3.27313455  T        0
O        2.08444736      13.43406662       9.98263735  T        0
O       12.70084380      13.51305541       9.64431091  T        0
O       12.82958587      17.19723158      10.06440435  T        0
O        4.01209489      14.90028400       8.78810944  T        0
O        5.84914209       4.79372454       2.10492808  T        0
Si       8.53962735       8.68855549       9.07088758  T        0
Si      11.51031859      18.76001525       4.07852127  T        0
Si      11.66946013      11.20766387       4.14788809  T        0
Si       3.46444802      10.45284429       4.55722801  T        0
Si       6.39546449       9.30569111      11.31050543  T        0
Si       4.22816350      11.01926308       7.54238370  T        0
Si       5.39455099       8.68186622       0.69124710  T        0
Si       7.44018813      11.05859000       7.15953717  T        0
Si       7.46865815      19.00025975       7.29951369  T        0
Si      12.67000505       8.73129303       6.00894682  T        0
Al       8.48867923      10.41241488       3.99394857  T        0
Si       8.31341776      19.18662654       4.17280836  T        0
Si      11.64187300       9.35144503       8.93495987  T        0
Si       5.75379668      11.17662710       2.63839085  T        0
Si       3.93380684       8.51249660       9.50584873  T        0
Si       5.73935055      18.38129697       2.69105586  T        0
Si       8.58141136      16.70107836       9.24598756  T        0
Al       8.50507514      13.40107785       9.04198019  T        0
Si      11.80679765       6.32846145       4.10023220  T        0
Si       3.66130786       7.26728136       4.37706632  T        0
Si       6.12605530      12.54808298      11.10333549  T        0
Si       4.59756994       6.32817697       7.25381436  T        0
Si       7.80688576       6.33614666       7.09304253  T        0
Si      12.64171871      13.45418971       6.16727291  T        0
Si      12.65382847      16.58408572       6.19982695  T        0
Si       8.75952330       7.18976919       4.17155245  T        0
Si      11.53405237      12.57667623       8.94417051  T        0
Si      11.60150750      17.51094097       9.03657901  T        0
Si       6.16583625       6.34253387       2.57454620  T        0
Si       3.62310391      13.41810069       9.38401983  T        0
O        8.27296744      20.31549400       7.88778300  T        0
O        5.34148658      19.52819199       1.56735632  T        0
O        8.05946985      20.75292573       3.73214158  T        0
O        6.27454189       9.42065348      -0.48370295  T        0
H        1.81269882      11.30123319       3.09859993  F        0
H       13.03074803      18.74401529       2.26762503  F        0
H       13.03074804      10.85204106       2.26762503  F        0
H       12.34310542      20.30287261       5.56688324  F        0
H        6.01931354       8.91222751      13.59787507  F        0
H        4.05829635      18.79668859       4.41071282  F        0
H        3.12887899       8.92429365       0.49683426  F        0
H        5.06295559      18.75104696       7.26028496  F        0
H       15.03932990       8.88569483       5.99268334  F        0
H        1.92726146       8.79770260      10.59110356  F        0
H       13.54926599       8.42132791      10.11787432  F        0
H       11.52310955      19.83515307       9.21116341  F        0
H        5.53537813      12.95496052       1.09262639  F        0
H        5.53537813      16.64109584       1.09262638  F        0
H        6.74596320      16.92620537      10.74076342  F        0
H        2.04924741       6.48050321       2.89306910  F        0
H       13.35632228       7.06085325       2.51220488  F        0
H       11.61525895       4.01919395       4.45233654  F        0
H        5.86807409      12.98161584      13.33116226  F        0
H        4.37526294       4.01828352       7.26036481  F        0
H       14.91456245      13.24933472       6.30897701  F        0
H       14.91456244      16.34672163       6.30897701  F        0
H        7.92514400       4.01763560       6.85279547  F        0
H        1.73086689      12.60761804      10.35624453  F        0
H       13.32025657      13.20375310      10.31771692  F        0
H       13.32025658      16.39230324      10.31771692  F        0
H        4.05997682      15.72757570       9.28699687  F        0
H        5.99116592       4.00312854       2.66051272  F        0
H        8.32625906      20.60985804       8.81306681  F        0
H        5.72719026      20.39380587       1.33756863  F        0
H        8.66651872      21.47399316       3.93953912  F        0
H        6.58577874       9.14969547      -1.35751146  F        0
Fe      10.04470884      15.13499660       6.99985649  T        0
Fe       8.98526494      12.75250565       5.48839392  T        1
O        8.58626850      14.76102590       5.61205565  T        2
O        9.95440758      14.51959623       5.06749572  T        3
