141
Lattice="20.102 0.0 0.0 0.0 19.731 0.0 0.0 0.0 13.253" Properties=species:S:1:pos:R:3:move_mask:L:1:tags:I:1 i=77 E=-3472.0240129048 regions="_JSON [\"Active\"]" n_terminators=34 energy=-947.1363210231632 pbc="F F F"
O       11.64466724      16.87049095       4.79803369  T        0
O       11.53394591      12.68714899       4.81854651  T        0
O        6.27100015      19.07673098      11.33436734  T        0
O        6.22872676      10.53212827      11.59328731  T        0
O       15.90091532      10.43915037       8.92512810  T        0
O       16.36830614      18.81109224       8.76735909  T        0
O       13.99165891      17.33489281      12.06428835  T        0
O       13.71161876      12.21678287      12.10500888  T        0
O        5.77241717      19.19157519       6.75476046  T        0
O       16.16458809      18.69502516      13.00401971  T        0
O       14.21349373      19.93123167      11.61793130  T        0
O        7.29101414      12.28442533       7.79381562  T        0
O        7.65760405      17.36921441       7.42125694  T        0
O       18.07831996      17.10749969      11.99131220  T        0
O       18.17276304      12.34803797      12.31722345  T        0
O        8.23527421      19.47656591       5.72678203  T        0
O       10.83403331      10.43445657       9.09558719  T        0
O       11.21621042      19.05947859       8.93388531  T        0
O       16.06424978      16.97345591       4.45290805  T        0
O       16.27313344      12.18915237       4.87463795  T        0
O        9.78479491      16.88137202       9.34708084  T        0
O        9.58689395      12.68400252       9.18713133  T        0
O       19.91924920      12.47609648      10.18203969  T        0
O       20.29021574      16.35204233      10.58266325  T        0
O        7.36941920      16.95388961      10.31276559  T        0
O        7.20424731      12.80969212      10.40192980  T        0
O       17.38347426      12.53228299       9.74893853  T        0
O       17.87392799      16.68780497       9.37854356  T        0
O        7.92245279      14.69683774       8.65610005  T        0
O       18.42994384      14.62521354      11.03625810  T        0
O        5.76251754      16.67806092      12.38056069  T        0
O        5.87122521      12.85830473      12.70042390  T        0
O       16.18695011      12.73111717       7.43017918  T        0
O       16.45577812      16.74635332       7.12355093  T        0
O        4.72344041      17.44725360       9.97651558  T        0
O        4.52148293      12.26854876      10.47042281  T        0
O       14.69208706      12.61332547       9.60681662  T        0
O       15.20178055      16.56152830       9.48625163  T        0
O       15.62187820      14.67156106       5.66891227  T        0
O       13.89528285      12.66519368       6.07428926  T        0
O       13.98642373      16.75746752       6.13915700  T        0
O       12.20811653      14.73725533       6.24705304  T        0
O       11.64766086      12.44013823       7.48652559  T        0
O       11.71804355      16.96565723       7.47243824  T        0
O       12.08151272      12.67487050      10.08109120  T        0
O       12.32081971      16.97420790      10.10990139  T        0
O       13.63887786      14.63290216      11.00291708  T        0
Si      14.58207606      18.75048151      12.67365263  T        0
Si       7.38632859      18.91613160       7.02962359  T        0
Si      17.78450021      18.50597559      12.76545013  T        0
Al       8.14984120      16.38947350       8.75616691  T        0
Si       8.02505176      13.13117574       9.00641356  T        0
Si      18.49941621      13.00263753      10.83315374  T        0
Si      18.65844024      16.21122297      10.73472102  T        0
Si       5.99751887      17.52436569      11.01627761  T        0
Si       5.98551554      12.12270445      11.24098155  T        0
Si      16.06061126      12.08379906       8.92262720  T        0
Si      16.45988309      17.18228753       8.70357811  T        0
Si      15.47838162      13.07547473       6.00447825  T        0
Si      15.53816685      16.28842944       5.85618559  T        0
Si      12.33043647      13.12339907       6.18556790  T        0
Si      12.41184222      16.33246223       6.15025159  T        0
Si      11.07052882      12.06175272       8.97036562  T        0
Si      11.27287605      17.44386072       8.94128942  T        0
Si      13.55149542      13.05702782      10.69580281  T        0
Al      13.91713761      16.26693903      10.56849209  T        0
O       20.21279458      21.32701958      10.76601126  T        0
O       14.04815767      20.76735050      16.01575279  T        0
O        9.96842938      21.35592299       9.16924696  T        0
O        7.68436521      21.17602508      10.54616540  T        0
O       17.85367707      20.88060508       9.47327996  T        0
O        7.69130707      22.60251144       8.37478508  T        0
O       17.84159242      22.41489145      11.56256420  T        0
O        7.91626135      19.87798490       8.25861676  T        0
O       18.34193860      19.76752000      11.89462504  T        0
O        6.53773684      21.17507230      12.93582848  T        0
O       16.55534594      20.93865632       7.10113898  T        0
O        4.95340079      21.36601696      10.81835036  T        0
O       15.18905701      21.09235217       9.43107910  T        0
O       11.76422028      21.13565318       7.25032214  T        0
O       12.55959364      21.11500328       9.84433705  T        0
O       14.00137837      22.59971564      11.40080854  T        0
Si       8.33397470      21.24822124       9.04223103  T        0
Si      18.58640805      21.07857377      10.93324623  T        0
Si       6.35645065      20.71509667      11.37413562  T        0
Si      16.48496043      20.42557389       8.67052946  T        0
Si      11.39720923      20.66561131       8.78661619  T        0
Si      14.02075506      21.18449753      10.56516975  T        0
O        9.86380712      18.07956325      17.55960022  T        0
O       12.13334649      18.83297688      16.25326990  T        0
O       12.24034172      17.06339946      18.19777099  T        0
O       11.57982785      19.70136451      18.77445422  T        0
O       13.66097602      18.98713612      14.02440156  T        0
O       14.63634884      18.21056191      16.44926026  T        0
O       18.53227475      18.37539066      14.22537884  T        0
O        5.89027328      12.64019091      15.43436214  T        0
O        5.99698390      17.59604855      14.83796137  T        0
O        5.51647906      14.94121111      14.32562910  T        0
O        3.59924138      16.84174120      13.97179186  T        0
O        3.57883474      13.06588033      14.15027683  T        0
Si      11.46352996      18.43032741      17.71863605  T        0
Si      13.60867027      19.20958022      15.66374504  T        0
Si       5.21188622      16.48596155      13.91583460  T        0
Si       5.21079497      13.33837122      14.11579883  T        0
H       11.77741499      17.76721957       4.45015374  F        0
H       11.77741500      11.82883679       4.45015372  F        0
H        6.59189033       9.81912404      11.03827922  F        0
H       16.64303307       9.81912404       8.84117322  F        0
H       14.40563885      11.55048737      12.19637067  F        0
H        5.06295559      18.75104696       7.26028496  F        0
H        7.69777211      11.47779022       7.44841170  F        0
H       17.74891486      11.47779022      12.43104075  F        0
H        8.50665683      19.01129957       4.91774358  F        0
H       11.52310774       9.76092419       9.21110646  F        0
H       15.87290964      17.87210703       4.12309272  F        0
H       15.87290964      11.72394929       4.12309273  F        0
H       20.81132302      12.42644454      10.56784580  F        0
H       20.81132302      17.16961181      10.56784581  F        0
H        4.26454119      16.60174699       9.87579966  F        0
H        4.26454119      12.99430937       9.87579967  F        0
H       21.00618032      20.74626715      10.75217990  F        0
H       13.65226955      21.53630200      15.57301841  F        0
H        7.84356087      22.87259074       7.45668424  F        0
H       17.89470361      22.87259074      12.42276822  F        0
H        6.01931354      20.68412461      13.59787507  F        0
H       16.07044730      20.68412712       6.28158542  F        0
H        4.52133035      21.07133226      10.00226603  F        0
H       12.20788616      20.61981982       6.55602502  F        0
H       14.56690736      22.82060840      12.16034191  F        0
H        9.14696243      18.71543709      17.37869575  F        0
H       12.25872462      16.58911350      19.04928408  F        0
H       12.34310542      20.30287261      18.81988324  F        0
H       15.58095514      18.39037197      16.50370227  F        0
H       18.55779957      19.01129957      14.96174058  F        0
H        5.82176689      11.72394931      15.75639142  F        0
H        5.82176689      17.87210706      15.75639142  F        0
H        2.98936131      16.34896307      13.39901228  F        0
H        2.98936131      13.24709329      13.39901228  F        0
Fe       9.04154325      17.58542556      11.22494721  T        0
Fe      11.98388965      17.67571951      12.10547856  T        0
O       10.25735631      18.05481928      12.47524472  T        0
