150
Lattice="19.123 0.0 0.0 0.0 14.277 0.0 0.0 0.0 7.5465" Properties=species:S:1:pos:R:3:move_mask:L:1:tags:I:1 i=128 E=-2603.9155142701 regions="_JSON [\"Active\"]" n_terminators=34 energy=-1016.210471519916 pbc="F F F"
O        6.16159870       1.15878031       1.58316857  T        0
O       15.64362986       8.46570233       5.73675037  T        0
O       13.11307902       1.09059787       1.39113164  T        0
O        3.23278756       8.43358366       5.69302018  T        0
O       15.61674163       5.78043212       5.70878822  T        0
O       13.16022028      13.19742518       1.35791029  T        0
O        3.48884391       5.81120712       5.84236100  T        0
O       13.22594734      13.18822868       6.18681936  T        0
O        3.56263316       5.80168533       1.69481547  T        0
O       15.57318177       5.81039039       1.80781340  T        0
O       13.11670670       1.08565960       6.13885198  T        0
O        3.31105627       8.40807755       1.99874123  T        0
O        6.03735305       1.13054905       6.09373393  T        0
O       15.62908073       8.47479103       1.77016972  T        0
O        7.09448495       3.58488492       2.45440300  T        0
O       16.99479445      10.74910004       6.22387351  T        0
O       12.03615694       3.35569953       2.53112477  T        0
O        6.70356356      10.60210821       2.73146733  T        0
O       17.07372673       3.56271996       6.21174264  T        0
O       11.99311087      11.00019144       2.52052902  T        0
O        1.89702421       3.64876958       6.14355204  T        0
O       11.76505165      10.95460527       5.33064569  T        0
O        1.92126553       3.68276289       1.35693708  T        0
O        7.12237578      10.30865809       5.32475604  T        0
O       17.20025621       3.72017969       1.33084161  T        0
O       11.86983033       3.46800985       5.34391366  T        0
O        7.08456140       3.44922948       5.07119375  T        0
O       17.19424503      10.63776910       1.38293572  T        0
O        6.59194484       3.27881292      -0.03834035  T        0
O       16.08132322      10.19415821       3.75129041  T        0
O       12.45786018       3.23987879      -0.04871070  T        0
O       16.10542179       4.06180757       3.73899082  T        0
O       12.44387826      11.04825189      -0.05195777  T        0
O        2.99282064       4.19967472       3.76129583  T        0
O        4.53489288       3.28919676       1.76029565  T        0
O       14.37761952      10.79590624       5.73908948  T        0
O       14.56544779       3.31320064       1.66188086  T        0
O       14.48121524       3.36720250       5.77292295  T        0
O       14.53124124      10.92708761       1.67661940  T        0
O        4.52773245       3.33025817       5.78162923  T        0
O       11.35760301       8.46847133       3.81325366  T        0
O        7.78177764       8.32120383       3.82377484  T        0
O       11.36153702       5.91288632       3.78247057  T        0
O        7.58393893       5.82285718       3.89394282  T        0
O        9.34224720      10.44684782       3.69166244  T        0
O        9.41567165       3.93818749       3.81099306  T        0
O       13.34015034       7.16099343       5.08925939  T        0
O        5.61352726       7.25789159       5.08241191  T        0
O        5.72986673       7.21035895       2.40842308  T        0
O       13.37788314       7.20537086       2.42127650  T        0
O       14.12959509       7.14929858      -0.07943329  T        0
O        4.85685494       7.44201028      -0.06457078  T        0
Si       6.07107746       2.80759685       1.45070808  T        0
Si      15.77918505      10.08373271       5.35108411  T        0
Si      13.02409435       2.75240402       1.42399300  T        0
Si      15.82211268       4.16634947       5.34315604  T        0
Si      13.01629155      11.54095018       1.41480954  T        0
Si       3.23575843       4.25133068       5.38801971  T        0
Si      12.98011041      11.54197646       6.19973064  T        0
Si       3.26145613       4.24551041       2.13991069  T        0
Si      15.83345451       4.21353578       2.11645364  T        0
Si      13.01542371       2.74510488       6.20196985  T        0
Si       6.03451211       2.78523316       6.11742262  T        0
Si      15.83157580      10.07117798       2.12399670  T        0
Al      11.11099702      10.28371233       3.83262378  T        0
Si       7.80071134      10.03676644       3.84298728  T        0
Al      11.16798149       4.08956404       3.84885178  T        0
Si       7.83478438       4.14739706       3.80038460  T        0
Si      14.76778158       7.12865392       5.93988570  T        0
Si       4.29301898       7.22268661       6.06611189  T        0
Si       4.34871641       7.22502557       1.49416393  T        0
Si      14.71184755       7.15634268       1.45757456  T        0
Si      12.36738317       7.19162278       3.68092676  T        0
Si       6.58723007       7.14037017       3.78957609  T        0
O       19.16784701       3.06666532       7.87347493  T        0
O       19.15565642      11.17334530       7.82634242  T        0
O       12.85450492       1.19889509       9.85448475  T        0
O       12.87168578      13.05898266       9.86338531  T        0
O       15.51479058       5.77156259       9.32195318  T        0
O       15.47774635       8.46348134       9.30494893  T        0
O       11.67668875       3.49477003      10.21619154  T        0
O       11.67235146      10.73231269      10.19676506  T        0
O       11.54225652      10.84909649      12.90775449  T        0
O       16.77017013       3.46738472       8.86450970  T        0
O       11.60599434       3.60012877      12.97384299  T        0
O       16.78042030      10.75996630       8.87821518  T        0
O        6.56922255       3.29783250       7.58748349  T        0
O       16.35505208       9.90207877      11.39634813  T        0
O       12.76985937       3.04059901       7.80805085  T        0
O       16.39762407       4.24956024      11.39627025  T        0
O       12.74499374      11.23384327       7.80437421  T        0
O       14.30998925       3.46198582       9.92994256  T        0
O       14.31064430      10.79402848       9.91744555  T        0
O       11.80313092       8.48921462      11.67515940  T        0
O       17.30984469       1.15323481       7.50722041  T        0
O       11.42103663       5.82986349      11.44603418  T        0
O       17.30486375      13.11592899       7.57781373  T        0
O        9.49316265       9.73923454      11.54669489  T        0
O        9.44427608       3.95672347      11.71787661  T        0
O       13.62577148       6.63813789      12.61437070  T        0
O       13.24284712       7.08280711       9.97162031  T        0
O       14.03537946       7.10211043       7.48842040  T        0
O        4.89508605       7.34382546       7.59932797  T        0
Si      12.91007408       2.78344433       9.41325571  T        0
Si      12.90605689      11.47528718       9.40921153  T        0
Si      15.74565310       4.22511650       9.88311191  T        0
Si      15.73046967      10.00132790       9.87065492  T        0
Si      11.11598601       9.98617968      11.55754927  T        0
Si      17.57100240       2.78830112       7.59330297  T        0
Si      11.05264742       4.22038196      11.55514255  T        0
Si      17.55379652      11.47718260       7.60491094  T        0
Si      14.61628635       7.10283730       9.10256762  T        0
Si      12.51057786       7.04075163      11.46462033  T        0
H        5.61083456       0.52083913       2.07985367  F        0
H       13.50938118       0.51971906       2.07492992  F        0
H        3.36611374       9.37433505       5.45534891  F        0
H       13.50958039      13.75682243       2.07498241  F        0
H       13.51084140      13.75504172       5.44776650  F        0
H       13.50975252       0.52161770       5.44778410  F        0
H        3.36626427       9.38386245       2.08012257  F        0
H        5.62509051       0.52255101       5.44942550  F        0
H        6.67686405      11.12256578       1.90156970  F        0
H        1.81954193       3.15353441       6.98813474  F        0
H        1.83183800       3.14857954       0.53722786  F        0
H        6.67998430      11.11604137       5.63469228  F        0
H       17.29134854       3.14797220       0.53999843  F        0
H       17.29120144      11.12876736       0.54010345  F        0
H        6.35952436       2.97904956      -0.93427223  F        0
H       12.76076393       2.97683097      -0.93375646  F        0
H       12.76174962      11.29928001      -0.93393629  F        0
H       14.60982961       7.13673871      -0.92783774  F        0
H        4.51175007       7.13509558      -0.92932085  F        0
H       20.08726577       2.93486642       7.54597012  F        0
H       20.08739461      11.34211663       7.54749186  F        0
H       13.50938118       0.51971906       9.62142992  F        0
H       13.50958039      13.75682243       9.62148241  F        0
H       12.44514575      11.11938908      13.17925925  F        0
H       12.44354748       3.15657450      13.17989447  F        0
H        6.35949513       2.97597070       8.47938261  F        0
H       15.92688062      10.11457984      12.25007275  F        0
H       15.92754156       4.15729643      12.25107281  F        0
H       16.56036088       0.51548555       7.54573787  F        0
H       16.56020813      13.76127004       7.54583021  F        0
H        8.59739021      10.07362933      11.30867937  F        0
H        8.59637561       4.20354031      11.30854115  F        0
H       14.24618549       7.13643077      13.17698807  F        0
H        4.50898861       7.14016697       8.47499567  F        0
Fe      12.00189542       7.08917809       6.85067835  T        0
Fe       9.64141150       7.17287821       4.60495020  T        1
O       10.27022189       7.10980046       6.39196645  T        2
