145
Lattice="24.397 0.0 0.0 0.0 24.397 0.0 0.0 0.0 24.397" Properties=species:S:1:pos:R:3:move_mask:L:1:tags:I:1 i=41 E=-6943.8331748197 regions="_JSON [\"Active\"]" n_terminators=24 energy=-1032.0662881967648 pbc="F F F"
O        9.66225946      14.65468265      -0.17102312  T        0
O       12.26283077       9.48970498       2.57984147  T        0
O       14.86978681      20.88986586       6.22151430  T        0
O       12.23749659      15.71137066       8.76696672  T        0
O        9.69693777      18.41716550       3.63462756  T        0
O       20.93356860      15.69295231       0.00580728  T        0
O       18.39683263      20.81095591       2.58405288  T        0
O       14.80263143       9.55665594       0.01152182  T        0
O        9.68103372      12.10293987       2.58251254  T        0
O        9.61151610      15.65836995       6.19752068  T        0
O       14.78501773      18.24541705       8.78527578  T        0
O       12.09732718      20.83591812       3.65723170  T        0
O       15.86457402      20.81092829      -0.18568698  T        0
O       21.01672921      18.22705341       2.57914816  T        0
O       11.48278897      14.00326462       1.96352458  T        0
O       14.16659668      11.28496052       1.97410937  T        0
O       13.08760856      20.23422734       8.13174244  T        0
O       10.25392855      17.42376740       8.12439088  T        0
O       10.14172057      20.37056765       5.42883446  T        0
O       19.21607625      16.32919603       1.97682945  T        0
O       16.50293964      19.00168323       1.96375464  T        0
O       10.28604393      10.13608374       0.85813258  T        0
O       11.30433986      16.38303477       4.31139347  T        0
O       14.11893977      19.21035281       4.34472980  T        0
O       14.17275808      16.32761157       7.00217254  T        0
O       20.36156494      20.20479353       0.86026778  T        0
O       12.17013646      11.98028735       3.56536040  T        0
O       12.30663023      21.75829450       6.14545319  T        0
O       12.25141757      18.23938877       9.64668035  T        0
O        8.74490503      18.21170841       6.11811802  T        0
O       18.52715232      18.32384715       3.57071394  T        0
O       12.29352835       8.62228679       0.05310984  T        0
O        8.76490602      12.12328789       0.05116107  T        0
O       12.16007161      14.80291594       6.25754650  T        0
O       12.24351406      18.30766374       2.75203395  T        0
O       15.71012968      18.33930636       6.27757079  T        0
O       18.38358826      21.74207963       0.05671701  T        0
O       21.87554805      18.20027102       0.04993468  T        0
O       10.65726192      16.75217206       1.68468597  T        0
O       14.00505713      10.20882611       4.44093551  T        0
O       14.13217020      22.73793418       7.87737383  T        0
O       10.50077103      16.43141373      10.62419795  T        0
O        7.69245678      19.95953458       4.35307187  T        0
O       10.56565125      22.84453607       4.40974163  T        0
O       20.19570274      13.81555468       1.73006714  T        0
O       16.67602327      20.00714345       4.44240781  T        0
O       16.67809391      10.29790701       1.73261272  T        0
O       10.48209849      13.83426656       4.43607738  T        0
O        7.74427828      16.39880013       7.84888754  T        0
O       14.05300535      19.98325969      10.64185354  T        0
O       13.80662074      19.97677910       1.73527795  T        0
O       20.29628565      16.48422263       4.44066696  T        0
O       20.10313772      22.68039426       1.92913744  T        0
O        7.80525245      10.40727383       1.91637276  T        0
O       16.65879266      16.53029511       8.04401092  T        0
O       13.95478619      13.83466939       8.02847426  T        0
O       22.87651722      19.95817348       1.82356062  T        0
O       10.53395053       7.62535672       1.82884107  T        0
Al      10.92838015      15.20248438       0.85049317  T        0
Si      13.14694591      10.74934700       3.14243571  T        0
Si      13.58954173      21.40012253       7.09976808  T        0
Si      11.30739071      16.95487051       9.29149197  T        0
Si       9.06561175      19.25078500       4.90769624  T        0
Si      19.69124049      15.16530502       0.93516611  T        0
Si      17.51461931      19.52615270       3.10395172  T        0
Si      15.33094317      10.80300977       0.93471169  T        0
Si      10.96297995      12.98768296       3.10306698  T        0
Si       9.09280319      16.93239318       7.08229206  T        0
Si      13.54193577      19.18033740       9.30225227  T        0
Si      11.26641406      21.45517388       4.93191120  T        0
Al      15.29227687      19.57916778       0.86750376  T        0
Si      19.75558719      17.34686508       3.14466887  T        0
Si       9.13009897      11.19588753       1.33976168  T        0
Si      10.88364479      15.14152754       5.30782318  T        0
Si      13.12559692      19.68219015       3.15754377  T        0
Si      15.33507440      17.35647312       7.52374641  T        0
Si      21.52577737      19.15967711       1.32901666  T        0
Si      11.33307193       8.97422325       1.33039106  T        0
Si      15.37397156      19.61633936       5.32564472  T        0
Si      10.87606232      17.41454456       3.14375504  T        0
Si      13.13842548      15.16584182       7.51170861  T        0
Si      19.30578834      21.36392460       1.34477301  T        0
O       14.80462956      12.11572006      -2.57422878  T        0
O       15.82018916      18.44384183      -2.46969352  T        0
O       12.07908019      14.68020130      -2.51999341  T        0
O       18.36881428      15.70868342      -2.56594481  T        0
O       14.07600493      14.01864792      -0.86562861  T        0
O       16.46435680      16.42423408      -0.84116879  T        0
O       13.05476650      10.17559206      -1.94810998  T        0
O       10.08038629      12.88649924      -2.12792980  T        0
O       17.64185440      20.43031454      -2.13343872  T        0
O       20.31590983      17.44971162      -1.94932743  T        0
O       12.34342387      15.88119553      -0.11638289  T        0
O       15.68191425      12.07537341      -0.03126403  T        0
O       18.41448305      14.81853520      -0.02594808  T        0
O       14.57358017      18.14990334      -0.07494395  T        0
O       12.27228603      12.19438468      -3.46210325  T        0
O       18.28896034      18.22984575      -3.46620598  T        0
O       16.59737977      13.90386455      -1.73166474  T        0
O       14.08498653      10.45447029      -4.45149554  T        0
O       22.78997664      16.38976836      -1.73256676  T        0
O       16.51661459      19.96008844      -4.52702193  T        0
O        7.59080174      13.82933357      -1.60854808  T        0
O       14.06070354      16.44659258      -2.02978461  T        0
O       10.55092118      13.95458960      -4.55061150  T        0
O       16.67963901      22.90873860      -1.60514190  T        0
O       20.03432860      16.42231957      -4.45248313  T        0
O       14.10076235       7.69698892      -1.72567684  T        0
Si      15.29904885      13.01271744      -1.30210884  T        0
Si      15.25548515      17.37417691      -1.38393044  T        0
Si      13.14024579      15.23007557      -1.42092415  T        0
Si      17.47538039      15.20959405      -1.29300238  T        0
Si      13.55505079       9.01314302      -0.90325044  T        0
Si      11.23130823      13.41374467      -3.15312479  T        0
Si      17.12179758      21.46172336      -0.95076162  T        0
Si      19.26440773      16.97010167      -3.10820699  T        0
Si       9.03609792      13.39111490      -0.95019839  T        0
Si      13.53719038      11.22410954      -3.10798481  T        0
Si      21.47803239      16.94158824      -0.90709912  T        0
Si      17.07959100      19.27787489      -3.13756629  T        0
H       14.73192765      10.71000053       4.85487458  F        0
H       13.68673605      23.15239550       8.63276462  F        0
H        9.66477675      16.80915558      10.95402362  F        0
H        7.34351903      20.83116256       4.61081863  F        0
H        9.66481601      23.15243056       4.61081458  F        0
H       19.78590388      13.44267559       2.53358811  F        0
H       17.05321204      10.71001402       2.53361564  F        0
H        7.34350493      16.80917637       8.63275504  F        0
H       13.68672539      20.83112809      10.95404502  F        0
H       19.78593016      15.76396550       4.85484922  F        0
H       20.83112530      23.15241223       1.48839475  F        0
H        7.34352333       9.66479174       1.48837704  F        0
H       17.05322892      15.76398032       7.58755865  F        0
H       14.73195660      13.44271185       7.58757947  F        0
H       23.15241204      20.83112542       1.48839475  F        0
H        9.66479163       7.34352337       1.48837704  F        0
H       13.68673308       9.66480596      -4.85513656  F        0
H       23.15240156      16.80916493      -2.53384338  F        0
H       16.80913871      20.83112323      -4.85512183  F        0
H        7.34352146      13.68671965      -2.53387758  F        0
H        9.66480591      13.68673318      -4.85513656  F        0
H       16.80916481      23.15240172      -2.53384338  F        0
H       20.83112308      16.80913882      -4.85512183  F        0
H       13.68671953       7.34352150      -2.53387758  F        0
Fe      12.79816804      17.62222469       0.85444411  T        1
