136
Lattice="19.123 0.0 0.0 0.0 14.277 0.0 0.0 0.0 7.5465" Properties=species:S:1:pos:R:3:move_mask:L:1:tags:I:1 i=128 E=-2603.9155142701 regions="_JSON [\"Active\"]" n_terminators=34 energy=-900.5507233144035 pbc="F F F"
O       15.46103812       8.46251876       5.64964527  T        0
O       13.17694573       1.16493579       1.41996410  T        0
O       15.67397867       5.85936799       5.49647561  T        0
O       12.97871844      13.15490203       1.51604071  T        0
O       12.66666239      13.27575934       5.56329839  T        0
O       15.71627427       5.92007366       1.85774981  T        0
O       12.72803556       1.10393536       5.48006963  T        0
O       15.50713880       8.51667501       1.70454019  T        0
O       17.13014313      10.65597649       6.13181796  T        0
O       11.87915007       3.37081332       2.51650164  T        0
O       16.98703585       3.30897032       6.25655511  T        0
O       11.95980789      10.79533694       2.51562578  T        0
O       11.59931614      10.82036884       5.15613786  T        0
O       16.97649848       3.67406454       1.03852152  T        0
O       11.55852200       3.46944448       5.16466751  T        0
O       17.19430957      10.52205785       1.29052483  T        0
O       16.22604316      10.19374884       3.68449570  T        0
O       12.45980570       3.25782409      -0.04786397  T        0
O       16.34665631       4.20576025       3.60092386  T        0
O       12.49884147      11.01047897      -0.03692866  T        0
O       14.22674878      11.16359742       5.66587960  T        0
O       14.41730269       3.52683653       1.79698567  T        0
O       14.20344518       3.34757462       5.48460902  T        0
O       14.53579076      11.00780224       1.76384294  T        0
O       11.52272487       8.47841235       3.79106706  T        0
O       17.32296487       1.13722912       0.06003751  T        0
O       11.43816402       5.75526944       3.71447960  T        0
O        9.51598036      10.29235101       3.46820998  T        0
O        9.47716267       3.89557822       3.45383134  T        0
O       13.28273356       7.00576009       5.15015135  T        0
O       13.37648051       7.07840541       2.45523891  T        0
O       14.13547945       6.97113629      -0.08954995  T        0
Al      15.55245263      10.17384956       5.35179894  T        0
Si      12.97393779       2.80496048       1.44991133  T        0
Al      15.75583227       4.04562615       5.31207890  T        0
Si      12.98978814      11.50496421       1.45841503  T        0
Si      12.73203970      11.67238567       6.00117923  T        0
Si      15.83636694       4.24943611       2.04602022  T        0
Si      12.79865532       2.70362794       5.94310699  T        0
Si      15.82776249      10.07931730       2.09386895  T        0
Si      11.12530561      10.08682789       3.75256170  T        0
Si      17.56153539       2.75558447      -0.21037582  T        0
Si      11.07915423       4.13858536       3.73965893  T        0
Si      14.68006943       7.08966211       5.99781826  T        0
Si      14.65612796       7.15060666       1.45785292  T        0
Si      12.38779388       7.08520521       3.78189551  T        0
O       21.60726088       3.17721209       9.01746945  T        0
O       21.62679310      11.07531128       8.94990538  T        0
O       21.01641634       1.17489888       7.30013999  T        0
O       21.01340816      13.09885671       7.30016751  T        0
O       19.22263703       2.99597941       7.68585209  T        0
O       19.21286812      11.24258903       7.63620075  T        0
O       24.18622241       7.08652838       7.66835163  T        0
Si      20.85399675       2.78711467       7.58770036  T        0
Si      20.85392223      11.47896137       7.54098311  T        0
O       22.97060047       8.52535860       5.72348413  T        0
O       22.91559492       5.81436524       5.62693903  T        0
O       22.43494036       8.40322416       1.57231885  T        0
O       21.42986010      10.61783515       6.24180918  T        0
O       21.54228820       3.65620101       6.34766980  T        0
O       21.54941301      10.99215120       1.31244131  T        0
O       22.23609572      10.10152060       3.67849106  T        0
O       21.96915259       4.10422488       3.74467122  T        0
O       23.92917335      11.12053618       5.34913850  T        0
O       24.20395642      10.31844815       1.75493641  T        0
O       24.04199970       3.34713694       5.20466481  T        0
O       19.18085043       3.03846449      -0.38760597  T        0
O       25.24561821       7.14327407       5.27791694  T        0
Si      22.65729009      10.07506336       5.26612077  T        0
Si      22.63668929       4.22499291       5.25606147  T        0
Si      22.60936159       9.97781389       2.06638294  T        0
Si      23.78516414       7.13683126       6.05937922  T        0
O       12.83680836       1.21837265       9.74862696  T        0
O       12.84994143      13.06304570       9.81186022  T        0
O       15.54243257       5.80516000       9.70956479  T        0
O       15.53132704       8.45907846       9.52751538  T        0
O       11.58112070       3.57566874       9.90069732  T        0
O       11.52102673      10.75285568       9.92290887  T        0
O       16.89017983       3.58143195       8.89260680  T        0
O       16.79434905      10.74172158       8.80033525  T        0
O       16.20452383      10.37680151      11.34478062  T        0
O       12.58418201       2.83315432       7.57208038  T        0
O       16.23551480       3.80526135      11.39757253  T        0
O       12.45557710      11.50695856       7.61148650  T        0
O       14.28394474       3.48242119       9.53020658  T        0
O       14.22298301      10.77074483       9.51080851  T        0
O       17.28496517       1.10808872       7.84981848  T        0
O       17.25664190      13.07286987       7.42499251  T        0
O       13.15767132       7.16228425       9.83961877  T        0
O       14.38759807       6.95746753       7.59031846  T        0
Si      12.84356378       2.78081153       9.19287843  T        0
Si      12.79141945      11.51927620       9.21546796  T        0
Si      15.72855664       4.17054470       9.87136311  T        0
Si      15.66978451      10.07347860       9.80979701  T        0
Si      17.58334465       2.73584241       7.64385881  T        0
Si      17.57939910      11.45480107       7.53806425  T        0
Si      14.67266376       7.09395062       9.19262624  T        0
O       16.77797524       3.19593038      -1.60914560  T        0
H       13.50938118       0.51971906       2.07492992  F        0
H       13.50958039      13.75682243       2.07498241  F        0
H       13.51084140      13.75504172       5.44776650  F        0
H       13.50975252       0.52161770       5.44778410  F        0
H       17.29120144      11.12876736       0.54010345  F        0
H       12.76076393       2.97683097      -0.93375646  F        0
H       12.76174962      11.29928001      -0.93393629  F        0
H       16.56036088       0.51548555      -0.00076213  F        0
H        8.59739021      10.07362933       3.76217937  F        0
H        8.59637561       4.20354031       3.76204115  F        0
H       14.60982961       7.13673871      -0.92783774  F        0
H       22.00636260       3.98381786       9.40800429  F        0
H       22.00483182      10.29715766       9.41435165  F        0
H       21.68544240       0.51556882       7.54734209  F        0
H       21.68557806      13.76129914       7.54737584  F        0
H       23.63198861       7.14016697       8.47499567  F        0
H       23.06957714       7.66254159       1.68550051  F        0
H       20.95454049      11.12909684       0.54034962  F        0
H       22.32326696       4.16316078       2.82892343  F        0
H       24.76092223      11.11473374       5.84604825  F        0
H       24.75845825      11.12041654       1.68709931  F        0
H       24.75385446       3.15950316       5.84781029  F        0
H       20.08726577       2.93486642      -0.00052988  F        0
H       25.36244212       7.13797332       4.30618001  F        0
H       13.50938118       0.51971906       9.62142992  F        0
H       13.50958039      13.75682243       9.62148241  F        0
H       11.39369377       3.98884644      10.77146895  F        0
H       11.39439525      10.28733182      10.77116771  F        0
H       15.92688062      10.11457984      12.25007275  F        0
H       15.92754156       4.15729643      12.25107281  F        0
H       16.56036088       0.51548555       7.54573787  F        0
H       16.56020813      13.76127004       7.54583021  F        0
H       12.88235039       7.13795337      10.76981689  F        0
H       16.23925818       3.97887666      -1.85852020  F        0
Fe      16.90547469       6.32200900       3.90020518  T        0
Fe      17.95738784       9.33789795       4.69849839  T        1
O       18.14458893       7.78080349       3.33163591  T        2
O       18.57273449       7.45702405       4.73957565  T        3
