130
Lattice="19.123 0.0 0.0 0.0 14.277 0.0 0.0 0.0 7.5465" Properties=species:S:1:pos:R:3:move_mask:L:1:tags:I:1 i=128 E=-2603.9155142701 regions="_JSON [\"Active\"]" n_terminators=34 energy=-860.4887892473475 pbc="F F F"
O       15.90331165       8.43200152       5.92332798  T        0
O        3.35015989       8.40479384       5.88136939  T        0
O        5.75325408      13.02555274       1.75227716  T        0
O       15.73724758       5.85281254       5.28513426  T        0
O       13.25630814      12.94567193       1.78278666  T        0
O        3.16331048       5.82333875       5.65724669  T        0
O       13.22162389      12.96843157       5.78706367  T        0
O        3.26291571       5.69025108       1.51257872  T        0
O        5.79859754      13.04050280       5.81403578  T        0
O       15.61199468       5.60888870       1.42749170  T        0
O        3.29925822       8.34590516       1.77441955  T        0
O       15.91670147       8.32042238       1.78622885  T        0
O        7.40761480       3.67433196       2.27812774  T        0
O       17.21886053      10.77350506       6.10874569  T        0
O       11.61175467       3.51124935       2.26039338  T        0
O        1.98913102      10.74151314       6.13128949  T        0
O        7.24824958      10.90860243       2.30957598  T        0
O       11.94272850      10.59279306       2.22364123  T        0
O       11.97154373      10.65231939       5.05457548  T        0
O        7.24186159      10.96345729       5.00748634  T        0
O       11.78507344       3.05514452       4.91824394  T        0
O        1.95403233      10.67122592       1.40235258  T        0
O        7.39312589       3.71389420       5.28438141  T        0
O       17.24126816      10.63252028       1.38660915  T        0
O       16.16777658      10.06223531       3.78900715  T        0
O        2.99963794      10.06929215       3.79290405  T        0
O        6.30942130      11.26898548      -0.19559008  T        0
O       12.87744363      11.23322434      -0.22701399  T        0
O       14.53259475      10.69536215       5.86250073  T        0
O        4.69003758      10.65877419       5.81286169  T        0
O        4.64420221      10.62049184       1.75830875  T        0
O       14.56641920      10.63416468       1.71166917  T        0
O       11.36069360       8.01646385       3.74983684  T        0
O        7.08554100       8.67974829       3.70656839  T        0
O       12.20450800       5.53296898       3.99256821  T        0
O        7.74692162       6.19780024       3.76649335  T        0
O        9.39438654       9.93747807       3.67223484  T        0
O        9.78483216       4.64792215       3.80399446  T        0
O       13.57250897       7.41318645       5.21693002  T        0
O        5.54328935       7.00198864       5.11722675  T        0
O        5.48639031       6.91292382       2.47142639  T        0
O       13.64117915       7.19175044       2.51394351  T        0
O       14.21363610       7.31407734      -0.05412001  T        0
O        4.92374605       7.18970100      -0.05036090  T        0
Si      15.93304774      10.00871334       5.41239962  T        0
Si       3.26225531       9.97973582       5.41154925  T        0
Si       5.99982634      11.45302324       1.40604490  T        0
Si      13.11520634      11.34312419       1.40389219  T        0
Si      13.03086731      11.34757017       6.05224066  T        0
Si       6.09389283      11.45687329       6.06290058  T        0
Si       3.22215460       9.94294538       2.16990624  T        0
Si      15.95846382       9.93467116       2.16266193  T        0
Al      11.17435760       9.95643267       3.66839520  T        0
Si       7.78821994      10.16496128       3.67776198  T        0
Si      11.35935960       4.14809096       3.75644947  T        0
Al       7.95969974       4.33863058       3.77476085  T        0
Si      14.96756457       7.10351249       6.05431776  T        0
Si       4.21531390       7.02827276       6.07919380  T        0
Si       4.22377537       7.03073067       1.43839883  T        0
Si      14.88372245       7.09321844       1.44216705  T        0
Si      12.74161507       7.06816978       3.85859853  T        0
Si       6.42439654       7.20846107       3.76744277  T        0
O        6.15270407      15.55129759       1.59579338  T        0
O       12.96608890      15.54541623       1.57660460  T        0
O       12.93533847      15.54647968       5.94652820  T        0
O        6.17099832      15.55863312       5.94566153  T        0
O        3.57352424      14.58614518       1.43652457  T        0
O       15.49446393      14.46411707       1.45125556  T        0
O       15.47833853      14.48210701       6.08322023  T        0
O        3.59291682      14.57388572       6.11892003  T        0
O        4.82826440      14.56791247       3.77876256  T        0
O       14.21270724      14.49958977       3.77173113  T        0
Si       5.06275205      14.44482732       2.15434658  T        0
Si      13.98573143      14.36544587       2.14611209  T        0
Si      13.96894898      14.37066330       5.39824875  T        0
Si       5.08270010      14.44359477       5.40233162  T        0
O        6.69341267      11.15943422       7.57188028  T        0
O       12.47120655      11.04143180       7.58534658  T        0
O       14.64548903       6.66545272       7.61613735  T        0
O        4.83269128       6.86318289       7.59892193  T        0
O       12.90153767      13.02195608      -2.29660685  T        0
O        6.23598683      13.01959856      -2.28670476  T        0
O        7.41006155      10.53400461      -5.37014653  T        0
O       11.69838718      10.54610248      -5.37951100  T        0
O       12.00696223      10.58702582      -2.67382778  T        0
O        7.10480011      10.57223095      -2.66096239  T        0
O       14.67352572      11.09234342      -2.27811758  T        0
O        4.44313371      11.11338615      -2.18157456  T        0
O       11.36985587       8.25792521      -3.92023080  T        0
O        7.75719958       8.25389240      -3.90612368  T        0
O        9.55932645      10.14005046      -3.81654231  T        0
Si      13.11184820      11.45350714      -1.82660634  T        0
Si       6.02769225      11.45719577      -1.80433327  T        0
Si      11.19375395       9.90375193      -3.93700965  T        0
Si       7.92967502       9.89847449      -3.93132606  T        0
H       15.75636517       4.89339805       5.45628994  F        0
H        3.36064390       4.89097090       5.45283813  F        0
H        3.36661743       4.89904760       2.07505888  F        0
H       15.75706449       4.89440344       2.08043705  F        0
H        6.67730558       3.15591219       1.89974949  F        0
H       17.28974254      11.12548174       7.01862795  F        0
H       12.44565577       3.15588527       1.90033815  F        0
H        1.83343022      11.12554006       7.01950242  F        0
H       12.44354748       3.15657450       5.63339447  F        0
H        1.83154049      11.12909684       0.54034962  F        0
H        6.67493943       3.16061899       5.63310767  F        0
H       17.29120144      11.12876736       0.54010345  F        0
H       14.60982961       7.13673871      -0.92783774  F        0
H        4.51175007       7.13509558      -0.92932085  F        0
H        6.19227072      16.51830311       1.68641314  F        0
H       12.92965576      16.51835623       1.68579795  F        0
H       12.92837698      16.51830622       5.84502133  F        0
H        6.19527505      16.52349725       5.84321000  F        0
H        3.31758236      14.27693279       0.54250967  F        0
H       15.80460985      14.27688531       0.53932433  F        0
H       15.80160610      14.27834075       6.98608014  F        0
H        3.33802504      14.27670747       7.01705774  F        0
H        6.35946036      11.30224636       8.48133548  F        0
H       12.76333233      11.30075111       8.47967776  F        0
H       14.61405599       7.13800201       8.47661577  F        0
H        4.50898861       7.14016697       8.47499567  F        0
H       13.51084140      13.75504172      -2.09873350  F        0
H        5.62495998      13.75277707      -2.09714276  F        0
H        6.67686405      11.12256578      -5.64493030  F        0
H       12.44599272      11.12072140      -5.64644730  F        0
H       15.19994748      10.29594087      -2.09275354  F        0
H        3.92376286      10.29502607      -2.09159850  F        0
H       12.12595522       7.65409943      -3.78385824  F        0
H        6.99606890       7.65472256      -3.78428573  F        0
Fe       9.65508976       6.87863605       3.76726497  T        1
