136
Lattice="20.102 0.0 0.0 0.0 19.731 0.0 0.0 0.0 13.253" Properties=species:S:1:pos:R:3:move_mask:L:1:tags:I:1 i=77 E=-3472.0240129048 regions="_JSON [\"Active\"]" n_terminators=34 energy=-904.4718417897781 pbc="F F F"
O       10.01204388      18.92617265       4.02433163  T        0
O        9.93970080      10.61950407       3.95517915  T        0
O        2.26284477      18.28311798       3.96513913  T        0
O       12.10386196      18.56722047       2.49543522  T        0
O       12.09552215      11.00517426       2.49283804  T        0
O       11.95228900      17.34761002       4.90112514  T        0
O       11.82001931      12.19686788       4.93517145  T        0
O        8.34048546       9.44867545       7.95702724  T        0
O       12.41830587      20.02336064       4.64312840  T        0
O       12.33084738       9.52260314       4.62537327  T        0
O        3.44450297      10.37086188       6.21940105  T        0
O        3.87538123      19.07426565       5.93823685  T        0
O        6.09260629      19.02890716      10.66774584  T        0
O        6.12728917      10.58078968      10.65118588  T        0
O       17.04247200      10.63861664       9.17952639  T        0
O       17.04699052      18.95025251       9.15468247  T        0
O        4.88470518      18.69978307       3.47529213  T        0
O        3.93699482      12.33844760       8.03352468  T        0
O        4.25266495      17.45649596       8.04087025  T        0
O       14.33817548      17.07917483      12.06969554  T        0
O       14.38742744      12.51304741      12.06692770  T        0
O        5.88935254      10.57654911       7.41717135  T        0
O        6.07176591      19.33764993       7.44292649  T        0
O        3.63704217       9.80276463       8.73962852  T        0
O        3.72629245      20.14171985       8.36357264  T        0
O        7.92758709      12.14834198       8.12787742  T        0
O        7.75336120      17.26122763       7.93117354  T        0
O        7.99025487      10.88904615       5.81454503  T        0
O        8.11732629      18.61684622       5.87229491  T        0
O        7.52125472      11.23765210       3.18457420  T        0
O        7.51830888      18.42494314       3.30816972  T        0
O        8.00404406       8.76722971       4.23578670  T        0
O       11.81918886      10.57355059       8.76439022  T        0
O       12.01364501      19.03960792       9.46577116  T        0
O        6.00270233      16.99511870       1.65060099  T        0
O       16.14522225      17.03048401       4.53540673  T        0
O       16.14764669      12.56060002       4.54558017  T        0
O       10.07732834      17.06820738       9.49620775  T        0
O        9.99758646      12.36291096       9.78771244  T        0
O        7.39215685      16.61065049      10.63165296  T        0
O        7.53473295      12.90088752      10.65558085  T        0
O       17.83821628      13.14802649       9.41899806  T        0
O       17.86310790      16.46642049       9.41236933  T        0
O        8.77630780      14.58411338       8.89968029  T        0
O        6.02885918      17.43218687      12.82673785  T        0
O        6.05040295      12.19405302      12.78681365  T        0
O       16.58429311      12.48145368       7.21358218  T        0
O       16.49266572      17.10795531       7.22104220  T        0
O        4.70305300      16.81630753      10.59246450  T        0
O        4.87010468      12.89586145      10.45565686  T        0
O       15.18257782      12.56863169       9.48396312  T        0
O       15.21028005      16.99048905       9.53218735  T        0
O        5.06154490      14.63805881       0.65728182  T        0
O       16.09229058      14.79301728       5.92039246  T        0
O        3.78511281      16.90346179       0.20610531  T        0
O       14.15086861      13.01022832       6.37383810  T        0
O       14.09749001      16.56521679       6.24483472  T        0
O       11.96744556      14.93856611       6.07944840  T        0
O       11.43044997      12.96154255       7.65681394  T        0
O       11.82410757      17.18209956       7.51248398  T        0
O        2.18953446      16.78855188       9.52552403  T        0
O        2.24065488      13.33766527       9.96558018  T        0
O       12.61463090      12.80385027      10.05652693  T        0
O       12.63954539      16.59456869       9.98780565  T        0
O        4.00309392      14.90040576       8.88364403  T        0
O       14.33499136      14.76666539      10.78002306  T        0
Si      11.62480390      18.69489496       4.06017721  T        0
Si      11.55759625      10.87963349       4.05185444  T        0
Si       3.58268164      19.19223227       4.33413505  T        0
Si       4.27035783      10.78842723       7.57971383  T        0
Si       4.46058794      18.96957828       7.45856026  T        0
Si       7.51490854      10.75473229       7.36160465  T        0
Si       7.60362481      18.83321088       7.45356346  T        0
Si       8.37653073      10.37680998       4.30466518  T        0
Si       8.45796605      19.22186715       4.36148150  T        0
Si       6.11153024      18.41397904       2.45247505  T        0
Al       8.50754406      16.34926218       9.32330142  T        0
Si       8.54060445      13.01722697       9.37468454  T        0
Si       6.11086474      17.43301059      11.17190299  T        0
Si       6.14658644      12.16383529      11.14271938  T        0
Si      16.63841430      12.20167964       8.81920779  T        0
Si      16.63162425      17.38456171       8.82858609  T        0
Si       5.29443905      16.24306873       0.37168083  T        0
Si      15.70729706      13.19286953       6.00990983  T        0
Si      15.70115224      16.37269540       5.98212234  T        0
Al      12.46764258      13.20983566       6.16682330  T        0
Si      12.47707041      16.48923372       6.18748729  T        0
Si      11.47330064      12.15514847       9.09122159  T        0
Si      11.58180410      17.47774741       9.11617812  T        0
Si       3.78384642      16.48633203       9.27718126  T        0
Si       3.75640848      13.34132303       9.32533618  T        0
Si      14.12933803      13.16334230      10.57341081  T        0
Si      14.13254395      16.37788088      10.58908459  T        0
O        8.61167496      19.88474071       8.22354748  T        0
O        3.23101282      20.74597843       3.88460511  T        0
O        6.21801830      19.56354497       1.26788964  T        0
O        8.13621939      20.83344590       4.44146965  T        0
O        6.19726336      16.39601790      -1.00562825  T        0
H        1.81269882      18.29482316       3.09859994  F        0
H       13.03074803      18.74401529       2.26762503  F        0
H       13.03074804      10.85204106       2.26762503  F        0
H        8.32625906       8.98649408       8.81306681  F        0
H       12.34310542      20.30287261       5.56688324  F        0
H       12.34314048       9.29328245       5.56696388  F        0
H        3.46536401      10.58100877       5.26900439  F        0
H        6.59189912      19.77694965      11.03822749  F        0
H        6.59189033       9.81912404      11.03827922  F        0
H       16.64303307       9.81912404       8.84117322  F        0
H       16.64304187      19.77694965       8.84122497  F        0
H       14.40563884      18.04556895      12.19637069  F        0
H       14.40563885      11.55048737      12.19637067  F        0
H        4.11249823       9.08086468       9.18193973  F        0
H        4.11250309      20.51523557       9.18186357  F        0
H        6.55301950      11.30937632       3.13509397  F        0
H        8.66651872       8.12235896       3.93953912  F        0
H       11.52310774       9.76092419       9.21110646  F        0
H       11.52310955      19.83515307       9.21116341  F        0
H       15.87290964      17.87210703       4.12309272  F        0
H       15.87290964      11.72394929       4.12309273  F        0
H       18.05303808      13.25020103      10.35989921  F        0
H       18.05303809      16.34585533      10.35989921  F        0
H        5.86807409      16.61444052      13.33116226  F        0
H        5.86807409      12.98161584      13.33116226  F        0
H        5.67587981      13.88363563       0.63388066  F        0
H        2.98936131      16.34896307       0.14601228  F        0
H        1.73086688      16.98843832      10.35624453  F        0
H        1.73086689      12.60761804      10.35624453  F        0
H        8.32625906      20.60985804       8.81306681  F        0
H        3.60112680      21.53630199       4.30646574  F        0
H        5.72719026      20.39380587       1.33756863  F        0
H        8.66651872      21.47399316       3.93953912  F        0
H        6.36643797      17.19386972      -1.54340896  F        0
Fe      10.09181856      14.48393053       7.09229660  T        0
Fe       7.54491544      16.42398342       6.00636732  T        1
O        5.98580790      16.33701167       5.38547896  T        2
O        8.90700269      15.27589744       5.91928953  T        3
