142
Lattice="24.397 0.0 0.0 0.0 24.397 0.0 0.0 0.0 24.397" Properties=species:S:1:pos:R:3:move_mask:L:1:tags:I:1 i=41 E=-6943.8331748197 regions="_JSON [\"Active\"]" n_terminators=30 energy=-975.8880978164436 pbc="F F F"
O       21.53653586       2.77289240       0.31397722  T        0
O       21.59430364       5.70295274       3.27798003  T        0
O       20.99464920      12.44124205       3.55371716  T        0
O       21.81866162      -0.12115026       2.72447016  T        0
O       17.74650763       9.66348043       3.88967448  T        0
O       21.96622844       3.36518246       6.33427954  T        0
O       23.71122704       1.45377024       1.74746977  T        0
O       22.63514600       5.44238935       7.92754591  T        0
O       22.66180611       7.77535489       4.95523890  T        0
O       19.98455301      10.52006372       5.11147931  T        0
O       23.64395219       4.37865900       4.53417823  T        0
O       20.83436092       5.79048432       6.03733076  T        0
O       18.37968847       8.70153087       6.29231173  T        0
O       21.86625673      12.20248793       6.14554129  T        0
O       20.99531179       0.15063352       0.17571456  T        0
O       24.50961957       2.39229902       6.14017779  T        0
O       24.26063276       6.36253983       2.77049170  T        0
O       23.05365427       4.20323847       1.94289093  T        0
O       19.86813583       7.95832460       4.26826934  T        0
O       22.59461187      10.41133027       4.42677974  T        0
O       22.78592085       1.83354235       4.26072278  T        0
O       20.22565059       4.11956357       8.13565292  T        0
Al      23.34351945       2.85043178       0.83261757  T        0
Al      21.16586148       6.89074287       4.72397999  T        0
Si      21.33318842      11.39642058       4.80872690  T        0
Si      23.18779304       0.73679393       3.09627781  T        0
Si      19.02034853       9.20354917       4.85527685  T        0
Si      21.37868087       4.72431848       7.10700662  T        0
Si      23.54671791       9.12592153       4.85194739  T        0
Si      23.20653476       2.99510152       5.34078058  T        0
Si      23.20942161       5.23381877       3.22518974  T        0
O       24.71777987       8.84759925       3.68196237  T        0
O       28.01304738       8.85964800       0.17178922  T        0
O       28.88737937       6.77399787       1.73758603  T        0
O       26.29437976       6.69596234       4.30666789  T        0
O       24.31197543       9.56721840       6.25305467  T        0
O       26.33367733       7.74849855       1.82296550  T        0
Si      27.62948245       7.41379662       0.87772217  T        0
Si      25.40927411       7.46782831       3.14812127  T        0
O       26.98287912      -0.07560911      -2.61781827  T        0
O       28.02240388       5.92946307      -2.85110603  T        0
O       24.59709055       2.57185919      -2.82601855  T        0
O       30.84353273       3.38562843      -2.52678858  T        0
O       26.34163738       1.83366890      -0.90771466  T        0
O       28.87506420       4.25404127      -0.90091514  T        0
O       30.61308236       2.38285691      -0.00240443  T        0
O       27.29825657       6.28122820      -0.24933093  T        0
O       24.33781176      -0.02552915      -3.23842874  T        0
O       28.85662472       1.69666520      -1.77831533  T        0
O       26.35433682       4.32455889      -1.85337485  T        0
Si      27.53530955       0.81710322      -1.35260183  T        0
Si      27.64400534       5.20057927      -1.42615011  T        0
Si      25.41345402       3.05433067      -1.48220450  T        0
Si      29.80209870       2.96097499      -1.31277985  T        0
O       24.46420970      -2.71192476       2.58549693  T        0
O       26.99995591      -2.66684830       0.03446533  T        0
O       26.34706499      -0.89732533       1.95337600  T        0
O       24.48024317      -3.55965167       0.05333145  T        0
O       26.25023128      -2.02324545       4.40681549  T        0
O       28.86354665      -1.89140434       1.73442305  T        0
Si      25.36179596      -1.45775960       3.14299935  T        0
Si      27.52590380      -1.38786137       0.92043853  T        0
O       25.30567176      -2.08096745      -1.97353277  T        0
O       27.88638258      -0.15387952      -0.08850650  T        0
O       26.08669566      -1.63561101      -4.53555191  T        0
O       26.28413125      -4.55716785      -1.69462208  T        0
Si      25.76655604      -3.21401962      -0.89368294  T        0
Si      25.67917149      -0.95609319      -3.09415284  T        0
O       18.25264900       2.57647831      -3.57888675  T        0
O       20.78877810       2.37148732      -6.24952033  T        0
O       15.64852879      -0.14528976      -3.69093633  T        0
O       20.11851823       0.77766400      -4.20548839  T        0
O       22.56178306       1.28258068      -1.67063649  T        0
O       18.84819549       1.85488889      -8.08204440  T        0
O       16.30100270       1.91100162      -5.30938950  T        0
O       24.36704925       3.48531290      -0.35244927  T        0
O       18.10624629       0.07372988      -2.63407119  T        0
O       21.87236401      -0.12005028      -6.07010081  T        0
O       18.31546027       3.45845543      -6.10818570  T        0
O       19.92878935       1.75987422      -1.68145909  T        0
O       22.58723993       1.68582068      -4.33387042  T        0
O       20.16243671       4.28291856      -7.93281956  T        0
O       16.57573394       4.43173987      -4.28401963  T        0
O       13.79971380       1.67130055      -4.31885621  T        0
Si      19.10754545       1.29706868      -3.03183765  T        0
Si      21.32190308       1.18697979      -5.24274900  T        0
Si      23.51366053       1.36625377      -3.02640017  T        0
Si      19.53197142       3.00330395      -7.10551315  T        0
Si      15.11309314       0.85428794      -4.88818385  T        0
Si      21.23007070       1.47995273      -0.73568137  T        0
Si      17.34122288       3.08974462      -4.84068181  T        0
O       18.31533174      -3.48626704       2.77026732  T        0
O       15.51351178      -3.63259011      -0.19232042  T        0
O       20.96285516      -6.49222955       2.40639637  T        0
O       22.58136420      -1.88753041       0.85870942  T        0
O       20.03063850      -4.42768621       0.92666643  T        0
O       24.36181535      -0.26328819       3.64414387  T        0
O       18.07227399      -2.79257485       0.16570809  T        0
O       21.90623714      -6.09701225      -0.09707436  T        0
O       20.03852748      -1.82638749       1.67458605  T        0
O       22.58004825      -4.40940990       1.74551860  T        0
Si      21.36363605      -0.91924466       1.36304618  T        0
Si      21.33774057      -5.36353051       1.25814454  T        0
Si      23.53067543      -3.14883645       1.31212396  T        0
Si      19.12061658      -3.13996307       1.36879135  T        0
O       17.66062033      -1.80185981      -4.40297654  T        0
O       17.62220842      -4.46821937      -1.74949665  T        0
O       14.62493005      -0.02057311      -6.19929176  T        0
O       16.55014006      -1.97178673      -1.92583513  T        0
Si      16.96662507      -0.96915482      -3.15477495  T        0
Si      16.93588512      -3.21378908      -0.92393913  T        0
H       20.10951523      12.72546585       3.23923157  F        0
H       17.77043279      10.38640226       3.23924444  F        0
H       23.12591797       5.02704618       8.65412107  F        0
H       17.49826767       8.95372279       6.60186186  F        0
H       21.54216027      12.99764967       6.60187561  F        0
H       24.89951425       2.85451703       6.89840128  F        0
H       19.54188528       4.61080343       8.63276969  F        0
H       28.68412771       8.95914275      -0.52719976  F        0
H       29.22534432       7.17131743       2.55494170  F        0
H       26.95194123       7.17131746       4.82834527  F        0
H       25.19630608       9.34383456       6.60185911  F        0
H       28.68420928       6.62630035      -2.86021198  F        0
H       31.02330028       4.28720931      -2.86021198  F        0
H       31.29540115       2.85451753       0.50251718  F        0
H       26.93057847      -1.48866524       4.85486109  F        0
H       29.25186006      -1.48866523       2.53357887  F        0
H       25.88539893      -2.53384478      -4.85512307  F        0
H       25.88539892      -4.85512641      -2.53384082  F        0
H       19.36968740       1.27081557      -8.65438303  F        0
H       21.54221652      -0.50278066      -6.89866328  F        0
H       19.78593015       4.85484827      -8.63303166  F        0
H       15.76396555       4.85484859      -4.61106623  F        0
H       13.44267515       2.53358758      -4.61109248  F        0
H       17.77043326      -4.28747560       2.85995000  F        0
H       15.43756593      -4.28746062       0.52708992  F        0
H       20.10952426      -6.62656664       2.85995001  F        0
H       21.54221602      -6.89866750      -0.50277915  F        0
H       17.22541613      -2.55520754      -4.82860724  F        0
H       17.22541616      -4.82861063      -2.55520368  F        0
H       15.05289904      -0.79957238      -6.60212108  F        0
Fe      21.11703449       4.26740117       1.76160884  T        1
