147
Lattice="24.397 0.0 0.0 0.0 24.397 0.0 0.0 0.0 24.397" Properties=species:S:1:pos:R:3:move_mask:L:1:tags:I:1 i=41 E=-6943.8331748197 regions="_JSON [\"Active\"]" n_terminators=24 energy=-1044.6392102597492 pbc="F F F"
O        9.62046158      14.60198968      -0.08675149  T        0
O       12.34846934       9.52748495       2.46972230  T        0
O       14.84258437      20.85802866       6.20701750  T        0
O       12.22786557      15.69067121       8.77603182  T        0
O        9.78861710      18.47965370       3.68330383  T        0
O       20.91622976      15.67244288      -0.02057414  T        0
O       18.44100890      20.80564815       2.65726307  T        0
O       14.67453987       9.60683570       0.08515334  T        0
O        9.64953499      12.14230191       2.57896022  T        0
O        9.61008198      15.64465605       6.19291018  T        0
O       14.76576373      18.23348962       8.78234979  T        0
O       12.01558357      20.71802169       3.68731458  T        0
O       15.82983638      20.88984984      -0.21069045  T        0
O       21.01906725      18.20541076       2.56692220  T        0
O       11.59632378      13.83981221       1.84176817  T        0
O       14.05493117      11.56857605       1.87911439  T        0
O       13.06818051      20.22584921       8.12697666  T        0
O       10.26246857      17.41088741       8.11156748  T        0
O       10.09497131      20.40276446       5.52410978  T        0
O       19.21097158      16.30940630       1.95563414  T        0
O       16.54713389      19.05391406       1.91351327  T        0
O       10.33664504      10.22311524       0.85043494  T        0
O       11.40997294      16.49247410       4.44705132  T        0
O       14.06926544      19.13802688       4.35902462  T        0
O       14.15662378      16.29990975       7.00896562  T        0
O       20.36870810      20.19880901       0.88049404  T        0
O       12.14212520      11.97641960       3.60811974  T        0
O       12.30252967      21.76546383       6.13013151  T        0
O       12.24310758      18.22763743       9.65089879  T        0
O        8.72786141      18.19358574       6.11638492  T        0
O       18.51788498      18.29487609       3.55812008  T        0
O       12.21935798       8.57992465      -0.01104636  T        0
O        8.68403919      12.09610633       0.05298883  T        0
O       12.14829955      14.73368534       6.28129930  T        0
O       12.28707617      18.21877272       2.65443999  T        0
O       15.69445600      18.31202079       6.27786315  T        0
O       18.37449777      21.71014629       0.12267735  T        0
O       21.86147268      18.18451756       0.03796524  T        0
O       10.40592104      16.50433108       1.96835807  T        0
O       14.12622645      10.22453871       4.26425532  T        0
O       14.12486239      22.71925753       7.88131088  T        0
O       10.48957969      16.41558925      10.61705023  T        0
O        7.69706243      19.95656381       4.36363309  T        0
O       10.54683488      22.80858518       4.37895966  T        0
O       20.16943092      13.78235506       1.70299537  T        0
O       16.64099649      19.96117824       4.43357090  T        0
O       16.49792814      10.29525099       1.84461468  T        0
O       10.52189808      13.95382380       4.33640592  T        0
O        7.75670349      16.37822809       7.86597910  T        0
O       14.03935441      19.97885083      10.63796345  T        0
O       13.88657367      20.10143417       1.84167180  T        0
O       20.30530863      16.45928562       4.41222968  T        0
O       20.12860433      22.67046464       1.95795746  T        0
O        7.86286791      10.34126356       1.95807013  T        0
O       16.63685965      16.51087425       8.05643927  T        0
O       13.94781819      13.80481970       8.03970643  T        0
O       22.89751521      19.93819894       1.79053091  T        0
O       10.49165704       7.70721869       1.86384014  T        0
Al      10.87124488      15.22833581       0.90169872  T        0
Si      13.13952193      10.79868690       3.09703267  T        0
Si      13.57443166      21.38917064       7.09081904  T        0
Si      11.30229730      16.94332837       9.29058149  T        0
Si       9.07462713      19.26341487       4.93464419  T        0
Si      19.68158162      15.14415153       0.91657453  T        0
Si      17.51826076      19.51976794       3.10904348  T        0
Si      15.27240526      10.85906223       0.92924134  T        0
Si      10.93992416      12.98965960       3.09824809  T        0
Si       9.08978813      16.92326258       7.08075918  T        0
Si      13.52714301      19.17581414       9.29824737  T        0
Si      11.23805110      21.42675817       4.94308574  T        0
Al      15.28646092      19.67021972       0.88258535  T        0
Si      19.75166720      17.32902000       3.12639770  T        0
Si       9.11285073      11.20353050       1.33789215  T        0
Si      10.92206350      15.20418877       5.32239690  T        0
Si      13.09601381      19.62648699       3.14256665  T        0
Si      15.31663993      17.33793390       7.52565756  T        0
Si      21.53224966      19.14597736       1.32283464  T        0
Si      11.31870111       8.99951738       1.28794362  T        0
Si      15.33136345      19.57372353       5.31100558  T        0
Si      10.91272161      17.40897869       3.18585514  T        0
Si      13.13033376      15.13828410       7.52753472  T        0
Si      19.32020143      21.35167776       1.39418598  T        0
O       14.72859422      12.17659758      -2.57328816  T        0
O       15.77859172      18.44373561      -2.46272729  T        0
O       12.11902896      14.63740437      -2.47398894  T        0
O       18.36548239      15.69246929      -2.59105611  T        0
O       14.01405370      13.96002234      -0.69993044  T        0
O       16.51593744      16.46389916      -0.82964673  T        0
O       13.00631183      10.24220654      -1.91511993  T        0
O       10.09292254      12.87015612      -2.06443624  T        0
O       17.63026786      20.41289213      -2.09671462  T        0
O       20.29426290      17.44467157      -1.95868798  T        0
O       12.29290880      15.82374098      -0.02674270  T        0
O       15.70688786      12.09037378      -0.04901562  T        0
O       18.40630666      14.77819294      -0.05029208  T        0
O       14.65625303      18.16773692       0.00099581  T        0
O       12.21260978      12.19089521      -3.50626749  T        0
O       18.24646733      18.22381431      -3.45570095  T        0
O       16.52707193      13.96368520      -1.74334379  T        0
O       14.07343774      10.44277428      -4.41490582  T        0
O       22.76537073      16.37216062      -1.75414316  T        0
O       16.48077588      19.98689671      -4.49083536  T        0
O        7.59249993      13.85027234      -1.61287176  T        0
O       14.09385234      16.38788519      -1.91196205  T        0
O       10.49060045      14.03208807      -4.46603475  T        0
O       16.88531332      22.97199106      -1.58565924  T        0
O       20.00744232      16.45279496      -4.47921806  T        0
O       14.10868674       7.77419237      -1.76390516  T        0
Si      15.27332135      13.04184111      -1.31345296  T        0
Si      15.27054014      17.39908614      -1.32345292  T        0
Si      13.09271066      15.23958945      -1.32394624  T        0
Si      17.47926203      15.23461008      -1.30189241  T        0
Si      13.49246800       9.03811012      -0.92072394  T        0
Si      11.20579831      13.42357869      -3.11849380  T        0
Si      17.14447546      21.48190611      -0.92895525  T        0
Si      19.24499409      16.97682714      -3.12296998  T        0
Si       9.00716815      13.37890347      -0.92420648  T        0
Si      13.48151670      11.24736168      -3.11777672  T        0
Si      21.46086033      16.93072936      -0.92236624  T        0
Si      17.04764580      19.28289259      -3.11320766  T        0
H       14.73192765      10.71000053       4.85487458  F        0
H       13.68673605      23.15239550       8.63276462  F        0
H        9.66477675      16.80915558      10.95402362  F        0
H        7.34351903      20.83116256       4.61081863  F        0
H        9.66481601      23.15243056       4.61081458  F        0
H       19.78590388      13.44267559       2.53358811  F        0
H       17.05321204      10.71001402       2.53361564  F        0
H        7.34350493      16.80917637       8.63275504  F        0
H       13.68672539      20.83112809      10.95404502  F        0
H       19.78593016      15.76396550       4.85484922  F        0
H       20.83112530      23.15241223       1.48839475  F        0
H        7.34352333       9.66479174       1.48837704  F        0
H       17.05322892      15.76398032       7.58755865  F        0
H       14.73195660      13.44271185       7.58757947  F        0
H       23.15241204      20.83112542       1.48839475  F        0
H        9.66479163       7.34352337       1.48837704  F        0
H       13.68673308       9.66480596      -4.85513656  F        0
H       23.15240156      16.80916493      -2.53384338  F        0
H       16.80913871      20.83112323      -4.85512183  F        0
H        7.34352146      13.68671965      -2.53387758  F        0
H        9.66480591      13.68673318      -4.85513656  F        0
H       16.80916481      23.15240172      -2.53384338  F        0
H       20.83112308      16.80913882      -4.85512183  F        0
H       13.68671953       7.34352150      -2.53387758  F        0
Fe      13.70596470      13.78857833       1.59863860  T        0
Fe      13.68128525      16.98879403       1.42106250  T        1
O       14.30981959      15.41072123       2.16321198  T        2
